182
Lattice="17.21658502723464 0.0 0.0 0.0 20.0 0.0 0.0 0.0 21.299999999999997" Properties=species:S:1:pos:R:3:QM_forces:R:3:FF_forces:R:3 QM_energy=-34515.23989441587 FF_energy=-34516.1177438879 config_type=0.20-0.50 pbc="T T T"
H       11.77234872      12.13308247      19.53719551      -0.63610184       0.21816761      -0.28071943      -0.49898154      -0.11302634      -0.28622198
H        1.49719468      12.15678600      20.22294047       0.68009306       0.15228471       0.37114866       0.34665412      -0.05137874       0.28695052
H        3.88854344      12.16703886      14.72704481      -0.51749998      -0.67937626       0.35744706      -0.27133221      -1.02375033       0.14975890
H        4.87033660       8.05327644      18.24733804      -0.17367663      -2.84820880       0.14684220      -0.60526938      -3.89565153      -0.11886248
H        6.40908947       7.91820816       3.55028050       0.81760826      -0.44020255      -0.54667951       0.80043535      -0.35466188      -0.41290175
H        9.51661512       7.89710104      20.45306845      -0.81221654      -0.91160312       0.62863828      -0.28841972      -0.64984856       0.48850993
H        8.30796934       7.75101311      17.12243688      -0.12928432       0.09124859       0.05122829      -0.14173826       0.35049687       0.01637561
H        3.05324896       7.85219841       4.34343699      -0.02123430      -0.00261616      -0.08856113       0.10360910       0.06605510       0.02991769
H       14.39276894      12.29111843      -0.37130069       0.20849421       0.65022343       1.01788308       0.22185838       0.42166265       0.69658974
H       12.11342003      12.42321912       9.79875738      -0.56226911       0.17060274       2.33844950      -0.54951668       0.02021431       2.44178422
H       14.13373505       7.62793269       1.19634626       0.17504607      -0.06121465      -0.42005833      -0.01269011       0.03873113      -0.28640529
H       15.07179600       8.28360811      10.01567091      -0.15077022      -0.36819629       0.08086490      -0.33552653      -0.08738719       0.06891972
H        7.36288899      12.54517301       7.83602773       0.19204341       0.31011757       0.54085222       0.30071398       0.28982419       0.53294664
H       -1.33693565       7.82682937      19.35379304      -0.73315520      -0.04782873       0.39298110      -0.51196702       0.14911682       0.17715776
C       14.84079242      10.54573478       0.08970623       0.31494185      -1.09408854      -0.28499903       0.01688076      -1.69389943      -0.64995753
C       16.06598031      10.00714859       0.77404552       0.72492008       1.04785386      -2.11983652      -0.03490568       0.94386326      -1.57833275
C       15.99912631       9.95279538       2.17176755       0.10446219       0.23140174       1.14895730      -0.07808838       0.06878895       0.65343405
C       14.76470348       9.94895150       2.82985390       1.56871599       0.06548328      -0.45896118       1.10773428      -0.17375579      -0.09133109
C       14.67953339      10.47457341       4.18742125       0.96281035       0.06131280      -0.23692666       1.13005141      -0.65463945      -0.08213031
C       16.01858205      10.62766230       4.92290299      -0.68977985       0.32578864       0.69546503      -0.75318332       0.22376092       1.02324057
C       15.97162106      10.49221665       6.39593129      -0.38485338      -1.37903184      -0.45578877       0.44887681      -0.97886094      -0.31326201
C       14.71032745      10.37711941       7.08295175       1.19963806       0.76631768      -1.63252305       0.81473864       0.49289513      -0.60516843
C       14.70022666      10.19210775       8.47188300      -0.45811587       0.95125265       1.99159626       0.07727511       1.06917722       0.76398159
C       15.96054914       9.80804543       9.19713921       1.07491718       0.10075803       0.00149923       1.49061128      -0.08052529      -0.24070475
C       16.07116674      10.24294268      10.64388858      -0.32753393       0.37849712      -0.82616339      -0.93574230       0.34624850      -0.39280121
C       14.82487422      10.32110047      11.32538695       0.24976960       0.56390910       0.17677724       0.85369345       0.58615252       0.08824496
C       14.88791985      10.58373960      12.76191509      -0.32706491      -0.14220409      -0.59367765      -0.79252097       0.08291366      -0.31362486
C       16.15422935      10.27882767      13.47788494      -0.94022140       0.02825001       0.77640396      -1.17325821      -0.04036708       1.29560090
C       15.99465678       9.89048189      14.90733568       0.19576940      -0.23651099      -0.03012007       0.14314016       0.15642044      -0.20491722
C       14.85669784      10.18513940      15.60924306       0.08535812       0.10897181      -0.68877332      -0.13922432       0.38995357      -0.07273130
C       14.82555395      10.15875002      17.03120543       0.19890850       0.29297394       0.33726491       0.16045936       0.22498498       0.21915499
C       16.07014305      10.13186091      17.75376872      -1.14171562       0.88987372      -0.40135241      -0.67492335      -0.21698514      -0.69641554
C       16.09466268      10.37453498      19.15788037       0.39400722      -0.18064582       1.04750067       0.15487382       0.46407107       1.33959614
C       14.89212343      10.54889044      19.86818729      -0.38137887      -1.78176928      -0.33918299      -0.63016147      -0.17886461      -0.80758432
C       12.42036688       9.93786147      -0.04098775      -0.49511212       0.58489672       0.13833359       0.10858857       0.54968950      -0.20994601
C       13.61304031       9.88961417       0.65644017      -0.31155689      -0.03845245      -0.12302902      -0.47635075       0.01499492       0.03068347
C       13.62977475       9.39768788       2.06980987      -0.63640577      -0.36302411       0.29526989      -0.34142950      -0.07239250      -0.46565086
C       12.35035332       9.73965127       2.78516646      -0.20072135      -1.02918907      -0.84263566      -0.02736719      -1.08907968      -0.20203017
C       12.32183793       9.66164696       4.21239048      -0.22860134       0.38366447       1.26479641      -0.26561084       0.46063255       0.22121754
C       13.55685449       9.92103723       4.98860146       0.78423307       1.18236087      -0.82849586      -0.01839792       0.71959604       0.07845975
C       13.52046987      10.45448748       6.36375587       0.37064316      -0.70041137       0.66354738       0.25140632      -0.88957393       0.31036807
C       12.29424257      10.72352662       7.05922307      -0.30684610      -0.01131261       0.56410602      -0.25741054       0.01733148      -0.01251959
C       12.28975834      10.81675479       8.60088192       0.65545431       0.59607001      -0.49175413       0.60604961       0.34535235      -0.31214243
C       13.54787745      10.31750875       9.23467051       1.06209022      -0.05612514      -0.53796216       0.00167823       0.09395373       0.31293366
C       13.60972238      10.30795428      10.67293384       1.13921771      -0.58484915      -0.65069375       1.26282015      -0.43491583      -1.27613446
C       12.39510035       9.99301089      11.40228648      -0.53582111       1.29812637      -0.68611630      -0.01076926       0.98536427      -0.29428822
C       12.37593291      10.21668528      12.83145487       1.56750908       0.43927979       0.66447710       0.29239584       0.45901034       0.77389666
C       13.60611229      10.47994722      13.45488624      -1.38826489       0.22589625       0.41554964      -0.04013053       0.06369930       0.73766130
C       13.61699298      10.64111610      14.91932863       0.27972254      -0.89859010      -0.46560665       0.51894839      -0.86769951      -0.46036296
C       12.30820088      10.43322157      15.65524322       0.01215167       0.34756775      -1.02561378      -0.73199981      -0.11229261      -0.82929440
C       12.37317506       9.89385772      17.02198690      -0.99678204       1.26787004       0.45923013       0.03979497       1.00232740       0.12738474
C       13.64754478      10.19800987      17.72425011      -0.67238019      -0.15926995       1.39898555      -0.88092373      -0.30340741       1.47876716
C       13.64834658      10.38866842      19.16176572      -0.73226151      -0.68875511      -0.45831903       0.25234251      -0.48397455       0.23730189
C       12.42280538      10.14678956      19.86230662       1.01308973       0.51268811       0.02285652       0.49706923       0.26971454      -0.03567019
C        9.92970932       9.91262184       0.02395913      -0.20779136      -0.73720827      -1.05445980      -1.04273179      -0.71935934      -1.54720491
C       11.14171207       9.92330738       0.67000115       0.46078973      -0.18493629      -0.49884640       1.04050309      -0.18094513       0.18822805
C       11.18299920       9.82917456       2.06935344      -0.02907936      -0.51135072       1.56055232       0.10159247      -0.48332654       0.99888896
C        9.93908700       9.46481973       2.79247254       0.25545500       0.26007002      -0.79804354      -0.31233685       0.23028540      -0.56556727
C        9.86954498       9.46378359       4.31131585       0.64616258      -0.11481891       0.06654418       0.47964715       0.35756319       0.11790512
C       11.10657322       9.77023427       4.95593664       0.25430632       0.59708392       0.51697570       0.30260293       0.58158556       0.63832913
C       11.02488751      10.39625641       6.28918744       0.65911015      -0.88423098      -0.12259659       0.67085257      -0.25067177       0.51233383
C        9.80179887      10.21553272       7.07938180       1.63261142       0.55053124       0.84458529       1.23688101       0.27240047       1.13038098
C        9.87294597      10.22947159       8.51972457      -0.37296085       0.56311555      -0.22677165      -0.60406386       0.56243764      -0.58566246
C       11.05229908      10.31253080       9.20434538      -0.39641358      -0.04765237      -0.06403204      -0.36486420       0.17578415      -0.18075958
C       11.07916761      10.01184732      10.62734798       0.01376629       0.34959461       0.85224919      -0.40006926      -0.37370109       0.60361950
C        9.82662741      10.19303639      11.38906265       0.82963915      -0.45095292       0.53316609       0.80542545      -0.31595983       0.10283124
C        9.87196656      10.19504194      12.80886812      -0.74784317      -0.55478070      -0.99187411      -0.95710286      -0.52584525      -0.62749807
C       11.11249687      10.15552296      13.49773782      -0.50066822       0.68437751       1.90250373       0.09616347       0.77005161       0.96774258
C       11.02605582      10.24787647      14.91715941       0.38957577      -0.12197088       0.05284076       0.39873149      -0.15662383       0.60540950
C        9.79691204      10.16952832      15.66261554       0.90271536      -0.35134496       0.05191544       0.87645313      -0.41975725      -0.30767340
C        9.80937319      10.14176651      17.10533468      -1.65552823      -0.22552791      -2.01823376      -1.26297675      -0.41179274      -2.14506508
C       11.06792717       9.95877259      17.77190308       1.64707476      -0.32043226      -1.12736961       0.65886445      -0.13064430      -0.38665791
C       11.10905484      10.35822738      19.18271481      -0.56170179      -0.47350643       0.48762063      -0.45188906      -0.34945225       0.67907445
C        9.89253699       9.65938345      19.84179814       0.42882655       0.60235655       1.39242242       0.89639968       1.19986540       0.93436192
C        7.38747752       9.35240315      -0.05799458      -0.22067316      -0.00841327       1.09333198      -0.24909430       0.62853822       0.83432570
C        8.70450327       9.66703988       0.69033389      -1.21654148       0.50138047       0.43857245      -0.42714326       0.18410073       0.62790927
C        8.71082019       9.61570660       2.04567324      -1.47303368      -0.31510340       1.30560112      -1.41649857       0.08751332       0.85716633
C        7.43154937       9.41135187       2.85835170      -0.26562887      -0.18180090      -0.62414754       0.07537218      -0.04703566      -0.55303533
C        7.45549994       9.87156274       4.30626118       0.52641175       0.77404321      -0.42758471      -0.42290038       0.57025846      -0.22864076
C        8.63860651       9.91393646       5.00993223      -0.52125160      -0.49976940      -1.07273304      -0.00912434      -0.67815194      -0.95983896
C        8.65840569      10.27729145       6.39220030      -0.94384036      -0.43980136      -0.73798510      -0.44600847      -0.61371736      -0.69960903
C        7.41870992      10.67499268       7.10089503      -1.13921061       0.03491375      -0.81771024      -1.10083675       0.17284612      -0.76728984
C        7.44191074      10.33657601       8.54257308      -1.27239377      -0.66560735       0.49933760      -1.21652084      -0.53563513       0.81298157
C        8.60732650      10.22656849       9.23421999       1.59264488      -0.19896422       0.97249877       1.48385605      -0.19857918       0.84449104
C        8.62957661      10.20477041      10.68035870      -0.74875756      -0.11001192      -0.52554050      -0.36818252      -0.15361512      -0.38261265
C        7.40532099      10.16706628      11.39556753      -1.13316213       0.05398023      -0.43687499      -1.03981886       0.02213571      -0.36294624
C        7.37696358      10.15773100      12.81026345       0.62075629       0.07548403       0.30584432       0.48173808      -0.05178704       0.27138681
C        8.62927244      10.14465923      13.52976594      -0.85013285       0.19499161      -0.53237079      -0.53489983       0.10763881      -1.03336317
C        8.55868344      10.05694694      14.94012843       1.75549351       0.40194592      -1.02745906       1.64003222       0.38261893      -0.49509253
C        7.34767763       9.90295268      15.55993079      -1.14207747       0.42118764       1.91258161      -1.01945472       0.68639495       1.89653689
C        7.33695291       9.58129179      17.03757747       1.29192746      -0.92792431      -0.94281064       1.29593743      -0.94105708      -1.07555142
C        8.60391993       9.90241285      17.78920110       0.04155341       1.60855058      -1.45400873       0.18311270       1.59078803      -0.56476561
C        8.56161326       9.96088773      19.16741613       0.52419390      -0.92257727       0.72396486       0.70996555      -1.25369496       0.03941738
C        7.35736029       9.82846987      19.84615349       0.66045323      -0.09575230      -0.50879293      -0.19820932       0.32406394      -0.78424136
C        4.93693454       9.83550685       0.00826647      -1.27953901      -0.47527390       0.75695778      -0.91152670      -0.19241348       0.87451318
C        6.16133564       9.80005281       0.69350506       0.85946443      -0.20008760       0.27965466       0.45125903      -0.27302246       0.34405097
C        6.18602823       9.82038846       2.06660303       0.42118615       0.39425006       0.88481873       0.24223049       0.47171487       0.81274967
C        4.98395129       9.98928349       2.79399500       0.12569181      -0.11691305       0.68654615      -0.03705885      -0.09442703       0.73539433
C        4.99572992      10.02213721       4.20618441       0.83516880      -0.66375305       0.56174327       0.66475287      -0.68527934       0.76062611
C        6.20826397      10.03545411       4.98518099      -0.58860067       0.59596083      -0.67606199      -0.35894804       0.48117995      -0.97120372
C        6.18886316      10.22190012       6.37805835      -0.88575974      -0.38483119      -0.08122220      -0.48530602      -0.29567886       0.16811107
C        4.95514960      10.19872731       7.09686315       0.55542178      -0.49390171      -0.48394123       0.84270510      -0.61083723      -0.62591902
C        4.98525878      10.18162371       8.51869597      -0.03479046      -0.36641032      -0.04084453       0.19472343      -0.47697585       0.24462329
C        6.22059777      10.13111522       9.24373580      -0.76051725       1.12135203      -0.05994212      -0.79214337       0.81462725      -0.28488599
C        6.16209121      10.09745859      10.67145621       1.30040068      -0.21707776      -0.74242357       1.00608446      -0.01496673      -0.66669984
C        4.91399557      10.03038239      11.33242728       0.58926738       0.17137966       0.53009226       0.89072440       0.31158460       0.49834838
C        4.90948808      10.12487408      12.75353882      -0.26534637      -0.13984913      -0.04360946       0.26778821      -0.27336980       0.16159864
C        6.12298345      10.15367774      13.49542643       0.71641386       0.03867764      -0.17186601       0.40039495      -0.18151913      -0.79009485
C        6.11315596      10.04005405      14.90866276       0.10879320      -0.74844786      -0.10957633      -0.42869902      -0.69085812       0.44781090
C        4.88321103       9.82718639      15.62590368      -0.34538608       0.76106063       0.85909311      -0.04339998       1.11846263       0.16940818
C        4.87231150       9.69537076      17.02588118       0.65897489       0.53399798      -1.18421245       0.74225058       0.73336904      -0.83035996
C        6.08106327       9.87892429      17.73552194       0.08527600      -0.45818590       1.05287461      -0.01166406      -0.36046726       0.08272120
C        6.12188277       9.90972651      19.13523551      -0.73298699      -0.33051053       0.20456591      -0.28284771      -0.07741810       1.52335871
C        4.87717176       9.83808646      19.91291674       1.18728819       0.00539469      -0.79957202       1.21524368      -0.00963071      -0.96784416
C        2.51968008       9.40476953       0.04019521      -0.86521531       1.54737184      -0.79155189      -0.55443824       1.43807213      -0.43325862
C        3.70805063       9.64231399       0.75585336       0.67490119       0.51934983      -1.15990604       0.17883015       0.59194753      -1.19328745
C        3.72713341       9.88423743       2.13707084       0.33071624      -0.47314618       0.10030778       0.19039378      -0.14433671      -0.03581834
C        2.53766183       9.92197910       2.88745174      -1.14012023      -0.58771575      -1.17314233      -1.34759009      -0.49874601      -0.84903440
C        2.47897884      10.00328008       4.23947018       1.27709410      -0.04272622       0.47492023       0.72713493      -0.02036873       0.18641133
C        3.75941946       9.65565118       4.94235343      -0.70039385       0.33123001       0.54566566      -0.27470747       0.00848700       0.47055942
C        3.75357965      10.04934325       6.38795827      -0.53725726       0.62223378      -0.61910899      -0.54253923       0.62271437      -0.89010927
C        2.49829254      10.27379683       7.00356678       1.03473626      -1.59419249       0.86076794       0.68907210      -1.59070526       0.84568514
C        2.55532447      10.17574281       8.40603381      -0.03503790       0.42607788       0.46325930      -0.40246181       0.33064270       0.31335639
C        3.74846904      10.06693355       9.17134921      -0.78071721       0.52252185      -0.10222364      -0.55937678       0.51000091       0.31514907
C        3.70182034      10.00326382      10.61280231       0.94665247       0.45629991      -0.06147626       0.81526867       0.29660101      -0.65092779
C        2.53056256      10.03863023      11.34814224      -0.39548649      -0.25670460      -1.53687233      -0.75133714       0.19261000      -1.02670334
C        2.53708330       9.82900335      12.71206449      -0.95270224      -0.70773229       0.95509672      -1.16902289      -0.73614964       1.15114471
C        3.68069773      10.03292946      13.43295223       0.65411954      -0.74116680       0.40732496       0.36781617      -0.81157801       0.69139837
C        3.58876366      10.16014043      14.92299973      -0.37344065      -0.63043950       0.35397428      -0.27121756      -0.76791245       0.39382913
C        2.45636104       9.33491024      15.54928211      -0.10804923       0.37674646       1.00927379      -0.16022462       0.53384676       0.18340126
C        2.42167933       9.15853508      16.98406031       1.78537726      -0.34266167       0.35248906       1.15682419      -0.06863147       1.34604231
C        3.71944095       9.20383673      17.81133471      -1.49774333      -0.06073323      -1.28945099      -1.62847779       0.21761995      -0.98997274
C        3.70170080       9.60370015      19.24315259      -2.01992624      -0.41397939      -0.38825974      -2.04597116      -0.39105190      -0.71977375
C        2.45350596       9.40074555      19.92004290       1.81337867       0.85883598       1.61813633       1.40669874       1.27579135       0.79425025
C        0.03692408      10.01717980       0.04665707      -0.46062468      -1.57921470       0.67763767      -0.68853567      -1.39007627      -0.19227128
C        1.22198097       9.45665554       0.73606911       0.22765213       0.50738920       0.06064645       0.38628880       0.21875861       0.15433014
C        1.25384840       9.64949397       2.21761997      -0.12108458       0.04981929       0.03482719      -0.26664152       0.17270723       0.08946838
C        0.01308294       9.99508459       2.92592929      -0.25853564      -0.13491712      -2.59143055      -0.03313840       0.06107550      -2.37051875
C        0.04167707      10.19797021       4.23432825      -1.20465937       1.41456161       1.30250191      -1.03913028       1.27249641       1.04339086
C        1.26596395      10.13425197       4.92118198      -0.34697352       0.39400325       2.11188939      -0.16803839       0.42283928       1.41826890
C        1.23355398      10.26250355       6.32222474       0.61311630       0.39364818      -0.28734234       0.49999387       0.18146659       0.59735879
C       -0.01042206      10.31137184       7.07730186       0.51086606      -0.41492567      -0.15485560       0.38554820      -0.51996264      -0.63963787
C        0.05709428      10.09644605       8.45653728      -2.04411578       0.35861228      -0.90298378      -2.40984199       0.19638635      -0.77308139
C        1.30294292      10.37879105       9.11268279       0.45731790      -0.10951484       1.07958767       0.27093502       0.19443393       0.56950312
C        1.32927514      10.37979357      10.58472357      -0.25602013       0.27502313       0.20268651      -0.54154651       0.09943243       0.96691309
C        0.06429052      10.27295581      11.27339299      -0.84092587      -0.38957797       0.16867994      -0.31415188      -0.40368390       0.33066389
C        0.06824845       9.81917687      12.66991057      -0.29117302      -0.15155193       0.59179333      -0.60056386      -0.09836530      -0.10703237
C        1.29645272       9.37258450      13.39781107      -0.89438201       0.46927023      -1.10462558       0.14479728       1.04609896      -1.55057824
C        1.23850766       9.06641164      14.85343622       0.45147429      -0.35451514       0.13908095       0.11910568       0.53538082       0.16222036
C       -0.11884604       9.24765940      15.64965564      -0.50375908       1.22518253       0.08224076      -0.02667696       0.71023702      -0.66007537
C       -0.06097535       9.70063050      17.04841571       1.42669009      -1.09791242       0.09225900       0.52040200      -0.41877995       0.47035813
C        1.12568030       9.36685582      17.81264185      -1.06842558       0.60188271       0.97100265      -0.05662779       0.70741043       0.58586577
C        1.22193042       9.61087004      19.27371208      -0.87679751       0.71019459      -1.49934358      -0.07508013       0.81670370      -1.23856190
C        0.09069023      10.08895638      19.92046009      -0.62840211       0.15342215      -0.25982035      -1.20982520      -0.54445132       0.12264077
O        1.05851093       8.32273580       1.60748838       0.04835312      -0.56582080       0.23440629       0.26805708      -0.31091164      -0.06726350
O       11.61282958       8.68165504      17.28066933       1.14527312       0.03159617       0.68222249       1.33327155       0.36794423       0.58516629
O       10.00658973       8.18847471       3.49231666      -0.70047145       0.85714749       0.76361433      -0.35888268       0.36035309       0.57913543
O       15.21232862      11.81347667       4.41627437       0.37182093      -1.28642109      -0.03602332       0.58684781      -1.03588926       0.04663436
O        0.42692808       8.43858241      12.68981778       0.55427590      -0.46315831      -0.37988960       0.63397467      -0.54201142       0.11468535
O        0.31679803       7.94389680      15.23857653       1.02000950       1.13288946      -0.29310441       0.55124569       0.82310103      -0.07158598
O        1.40157141      11.69785613       9.88129027      -0.26294749      -0.49736005      -0.00883637      -0.06202862      -0.33894471       0.20763671
O        1.63944250       8.10655977      17.52831211       0.18079390      -1.51941100      -0.94179590      -0.73112190      -2.05995275      -0.70515119
O        7.14843684       7.93440017      -0.13000505       0.85799042       1.16385952      -0.50638854       0.19867059       0.25931275       0.28859003
O       11.83483656       8.78833478      10.93143348      -0.75332860      -1.47995947      -0.07968797      -0.90170700      -1.25512086       0.12295483
O       15.88534763      11.67357499      13.13817710      -1.21345235      -0.54753739       0.58291980      -1.02947856      -0.77373990       0.41124795
O       12.95810490      11.76685633      15.45680409      -0.93041297       0.20802484       0.77471255      -0.46736750      -0.18928394       0.42089227
O       11.49313977      11.77634180       6.48186110       0.16641897       0.22555719      -0.88165955      -0.01019635       0.31993414      -0.12707481
O       13.53800397       8.52402629       4.75661035      -1.03926217       0.03597751       0.67067830      -0.63724959       0.15804220       0.62614532
O       10.89787459      11.80536668      19.21178010       0.30306282      -0.15261204       0.27040026       0.25274350      -0.42453820       0.19093856
O        2.37834535      12.12039175      20.68383072      -0.64240309      -0.11044972      -0.22185386      -0.19777428      -1.00939788      -0.19087640
O        3.23434602      11.55861191      15.17410958       0.34639708       0.88798135       0.02364571       0.53571518       0.62436331       0.09708690
O        3.93708280       7.72011932      18.02843209       2.57196126       1.92445971      -0.03207120       3.32664926       2.28011145      -0.06445580
O        7.27062443       7.96819870       3.03817402      -1.13100530      -0.62844298       0.43239172      -1.14976309      -0.53245221       0.33432178
O       10.07956276       8.22826835      19.75024055       0.86876415       0.31090010      -1.24838891       0.86823317       0.22462675      -1.09116581
O        7.36691379       8.01731228      17.01649494      -0.17545027       0.60293122       0.04739631       0.03793629       0.84087269       0.24276800
O        3.73287911       8.14012328       4.98437575       0.41603722       0.11695193       0.26457987       0.36794591       0.42832114       0.02290492
O       14.74558051      11.94319869       0.49305923      -0.50807313       0.82058857      -0.97728026      -0.07223704       0.74201337      -1.25889927
O       12.34930480      12.29384427       8.90293851       0.39342409      -0.66469734      -2.78149510       0.61885062      -0.42370953      -3.21204958
O       13.69311977       7.85444233       2.03654943      -0.19434611       1.49867238       0.19187382      -0.28520360       1.40298404       0.25145611
O       15.77371161       8.34543110       9.34191683       0.84802491      -0.31226856      -0.36649421       0.78567511      -0.22119574      -0.71990176
O        7.17262656      12.16654468       6.96712123       0.52652271      -0.40705495      -0.41725670       0.74187164      -0.50236690      -0.66491677
O       -2.28507153       7.96296376      19.62553098       0.50471141      -0.20892484       0.09938936       0.39254787      -0.19107820       0.32321159
164
Lattice="17.21658502723464 0.0 0.0 0.0 20.0 0.0 0.0 0.0 21.299999999999997" Properties=species:S:1:pos:R:3:QM_forces:R:3:FF_forces:R:3 QM_energy=-28348.478427123708 FF_energy=-28348.941471349783 config_type=0.10-0.75 pbc="T T T"
H        0.49125658       7.36264437      15.15599828      -0.25171798       0.31153270       0.65482398      -0.35504549       0.48619641       0.62031162
H       13.24386385       7.47632734       4.34598299       0.09455994       0.40181455       0.00964296      -0.04744688       0.23219485       0.03937711
H        4.45660540      12.09713237       1.77940710       0.02773410       0.29448888      -0.05271115       0.01803229       0.17808715      -0.01382011
H        7.47693138      12.23884950      11.86201983      -0.06754965       0.25450525      -0.85507287      -0.03421967       0.31315585      -0.77393197
H        6.04035783      12.30000455      17.47252134      -2.95720623      -0.06329333      -0.46138532      -4.38683723      -0.18795736      -1.02255122
H        1.75008390       7.72389009      -1.05879205      -0.53545578       0.41984499      -0.66798838      -0.34621550       0.24278523      -0.52711829
H       10.57418800      12.36664349      15.74002573       0.12840147      -0.62980129      -0.11058833       0.06278894      -0.51499934      -0.10685368