210
Lattice="17.21658502723464 0.0 0.0 0.0 20.0 0.0 0.0 0.0 21.299999999999997" Properties=species:S:1:pos:R:3:QM_forces:R:3:FF_forces:R:3 QM_energy=-46722.449948146386 FF_energy=-46724.441673324305 config_type=0.40-0.25 pbc="T T T"
H        0.29058998       7.87421317       4.71477984       0.24559391      -0.03237552       0.06610046       0.15677010      -0.30848768       0.04631628
H        4.50060233      12.04443712      14.76197560      -0.69808517       0.56482705      -0.29706486      -1.25115916      -0.05122245      -0.22080277
H       10.21880089       7.84852031      10.36728956       0.22500002      -0.12019383       0.15918668       0.20403583      -0.54224557       0.01678117
H        0.54982750       7.86510847      18.73573959       0.26186052      -0.05862514       0.22345093       0.29943587       0.24840290       0.19930881
H        1.74323280      11.96429137      18.62887503       0.25369778       0.21851229       0.23662977       0.18934482       0.31854626       0.17945172
H        4.36812271       7.79795048      13.18772457      -0.24361860      -0.43090661       0.17401658      -0.03125476      -0.38262939      -0.18668970
H       16.36761857      12.25217100      15.70800630       0.08968994       0.08419061       0.09055904      -0.21410643       0.27088307       0.00012849
H       15.86828067       7.99601186       7.71538696       0.01933817      -0.33046177       0.13422548       0.45579830      -0.83256517       0.24007480
H        7.72913225      12.27656219      14.33251522       3.12694576      -3.43815939      -6.44003006       1.76734878      -3.20203601      -1.89314868
H        8.62480430       7.87058619       3.17902669      -0.21110474      -0.16247021       1.53616575      -0.20203093       0.10258453       1.88176754
H        7.29069741      12.55720558      14.85273863      -8.78843904       1.80366443       6.34614586      -4.19929737       1.23241655       2.62299929
H        2.98458503       7.78898823       4.88119187      -1.50916798      -0.71905879       0.44937174      -1.28728504      -1.03994100       0.13531198
H       11.76313239      12.07244286      14.53904079      -0.13312323       0.05142056      -1.27754784       0.17600935      -0.12164514      -0.91926375
H       14.09441943      12.23564911       9.90659254       0.04578456       0.20831577       0.06242029       0.18680195      -0.02729733      -0.07056630
C       14.74944348       9.59938368      -0.02019366       0.75632169       1.54943817       1.02956737       0.25924931       1.36848248      -0.12981424
C       16.02569157       9.78050255       0.71092655      -1.29662377      -0.46776988      -0.01262069      -0.52895497      -0.50822832       0.12447009
C       16.02296080      10.04601165       2.10737474       0.65031368      -0.39950289       1.12262838       0.08292919      -0.15188936       0.32942687
C       14.78730122      10.18705632       2.83481717       0.43033102       0.34820436      -0.31586464      -0.22416634       0.38307193      -0.55929944
C       14.75275633       9.91889430       4.22772253       0.31362971       0.30751972       0.14054402      -0.18522829      -0.09681293      -0.17459908
C       15.97585819      10.04993296       4.92271860       0.15947849      -0.64309273       0.14890706      -0.02318884      -0.04709397      -0.26261964
C       15.92444667      10.21517331       6.37271886      -0.13970816       0.24936485      -1.03772933       0.35427249       0.36565105      -0.37596638
C       14.81471789       9.52668835       7.11219577      -0.06453918      -0.43994658      -0.39881517      -0.52722680       0.42819577      -0.43254727
C       14.78102695      10.07280505       8.49206747       0.50698288       0.39156013       0.31637148       0.22138768       0.60452317       0.23693062
C       15.96837625      10.17155029       9.17721684      -0.82736840      -0.39202951      -0.56245976       0.16116613      -0.54707273      -0.18036932
C       15.90651298       9.95872310      10.61310172       0.91712923      -0.51409349       0.15913460       0.60893958      -0.23635810      -0.33263446
C       14.68759576       9.89128789      11.31519319      -0.52990225      -1.52964520       0.35220409       0.09935506      -0.71264156       0.13880203
C       14.76634696       9.80788308      12.78456382       0.26991720       0.85393306       1.30575872      -0.00353333       0.69505295       0.64289308
C       16.05559954       9.98764025      13.50994101      -0.14020820       0.71608953       0.31475522      -0.06806590       0.04085939       0.46421460
C       16.14278617      10.42652582      14.91470678      -0.62943872      -0.15293118      -0.55023828       0.04638534       0.29777895      -0.35678267
C       14.81886394      10.17419574      15.54467450      -0.06828665       0.68302205      -0.39848640      -0.70950747       0.83262334      -0.15029202
C       14.81975626      10.12128398      17.01813928       0.17743229       0.21097358       0.26100300      -0.66490027      -0.20493619      -0.05142192
C       16.02657454       9.80426821      17.78319546      -0.13820224       1.19971205      -1.19787307      -0.14480024       1.01841517      -0.97237259
C       16.05360917       9.93743847      19.17103737       0.39435105      -0.12820970      -0.05168028       0.13712531      -0.04867376      -0.26852972
C       14.81819367      10.13442076      19.91178657      -0.27257411      -1.19802720      -0.81190370      -0.40897677      -0.82721181      -0.32153302
C       12.34995842      10.18504611       0.03197616      -0.99255376      -0.55767762      -1.36046101      -0.85114096      -0.74460326      -0.71569601
C       13.51244253       9.70344248       0.70435022       1.11448146      -0.10748072       0.65466010       0.26784397       0.12236257       0.34572505
C       13.50126119      10.07941207       2.10048320      -0.06936408       0.52299717       1.05307348       0.17433566       0.01736835       0.63906709
C       12.30852462       9.80409692       2.85719238       0.25382388       0.12799999      -0.46990457      -0.13128877       0.48488926      -0.79637971
C       12.28405261      10.01727803       4.24140355      -0.48006980       1.51114564       0.06694638      -0.29936356       0.98249375       0.48988403
C       13.53258842      10.07927963       4.96445670       0.91257480       0.64446890       0.77824274       0.74509627      -0.03387471       0.19511896
C       13.50703198       9.59068224       6.34801528       0.50341734       0.19261409       0.47388206       0.21712496       0.60659860       0.32690112
C       12.25824474       9.72030624       7.09025232       0.72104402      -0.07893155      -0.85684090      -0.15906875       0.44855126      -0.28845139
C       12.26564969       9.82173762       8.53136360       0.48414898      -1.47028444       0.59638946       0.09051833      -0.91601541       0.46307211
C       13.52931379      10.03571469       9.21802813       0.09753383      -1.08017924       0.30424052      -0.41933683      -0.55524801      -0.13215728
C       13.49211095      10.50204716      10.62426165      -0.11908813       0.77935726       0.79415974      -0.23532223       0.16350147       0.90624267
C       12.24440403      10.14981825      11.30603923      -0.97774954      -0.57461761      -0.50360309      -0.42466924      -0.31028597      -0.24145825
C       12.21675839       9.86972707      12.68029394       0.90905980      -0.60636387       0.64538264       0.56037227      -0.44670470       0.65029454
C       13.43940462       9.80070870      13.44769186       1.36825076      -0.42887827      -0.37300396       0.79765977      -0.35584825       0.51588655
C       13.49204855      10.17161102      14.85883428      -0.07059044      -0.53579798      -0.07606775       0.26302786      -0.27943399      -0.36427426
C       12.19010459      10.36359241      15.60208840       0.52568713       0.64580520       0.00798129       0.67865026       0.00733446       0.19987225
C       12.28050529       9.92420281      17.01277814       0.11531679       0.86492779       0.03125457       0.20698344       0.32716356       0.40963831
C       13.52171456      10.13614558      17.70249076      -0.39717943       1.17130121      -0.22238969       0.36057979       0.76508577       0.11800582
C       13.57525137      10.25445036      19.16060824       0.53723519      -0.09557744       0.58271555      -0.45430998       0.05217411       0.41968745
C       12.29642773      10.20220538      19.88344786      -0.10331037       0.19355428       0.50408201       0.02143602      -0.26111671      -0.32688172
C        9.77959563      10.09200331      -0.01433297      -0.04118326      -0.92054961       0.44360802       0.33604666      -0.59691826       0.45915505
C       11.07443609      10.07577546       0.72121206      -1.62632458       1.09980668      -0.91278713      -0.87210510       0.74448340      -1.38397135
C       11.10296905      10.04159002       2.16526573      -1.02060723       0.39381057       0.19849112      -0.79826825       0.34333575      -0.41208793
C        9.81891087      10.16254615       2.83026320       0.53732662       0.05549400      -0.05066012       0.15582929      -0.14915739       0.28844368
C        9.79141369      10.15768010       4.29149091       0.41362301       0.25654280       0.86338203       0.08603989      -0.32639501       0.51578138
C       11.04649212      10.25406768       4.99431668      -0.22318088      -0.08252390      -0.03319263      -0.71253043       0.08262449       0.12181147
C       11.08617915      10.28738584       6.47085958      -0.70669154      -0.80431666      -0.20524498      -0.49910231      -1.01674141      -0.21287537
C        9.80074528      10.10440939       7.14253155       0.86935542      -0.26560308      -0.10662241       0.01676690      -0.38597540      -0.05196334
C        9.83675806       9.86557743       8.55428725       0.75936117       0.66029370       0.82314812      -0.03402900       0.04367350      -0.17035281
C       11.00459678       9.97914407       9.21632795      -0.54210998      -1.27557593      -0.67586578       0.08449213      -0.49676463      -0.52073204
C       11.03076459       9.63789526      10.62561327       0.88145940      -0.15545848       1.07104094       0.22061203       0.28939412       0.59791528
C        9.81966065      10.14665976      11.34229094       0.61327135      -0.28997007       0.56840094      -0.00569866      -0.07333042       0.03770126
C        9.79512035      10.21610641      12.80230326       0.31839142      -0.85613273      -1.43911926       0.44257481      -0.70226125      -0.93804314
C       10.98917019       9.74009671      13.47880138      -0.17352769       0.86634397      -0.21576188      -0.33094041       0.68917006      -0.62324459
C       11.00905905       9.81460953      14.92561973       0.36295520      -0.06433763      -0.27642982       0.28166869      -0.44806845      -0.15349183
C        9.84832063      10.26463097      15.65091535      -1.30662647      -0.02463898       0.03170693       0.22455240       0.05760022      -0.30980914
C        9.84424935      10.12508896      17.10961805      -0.67087447      -0.40981322       0.21946598      -0.62955290      -0.09632841       0.36511916
C       11.08990355       9.62864980      17.75043491      -0.13985415      -0.49714690      -0.46660077      -0.46191408       0.56355199       0.08743623
C       11.07220815       9.66998313      19.24727500      -0.74375996       0.73714423      -0.25470342      -0.32604308       1.10562241      -0.19910006
C        9.76567813       9.85150914      19.86766168      -0.21575809       0.17162829       0.22925029       0.33161341      -0.19507655       0.20178978
C        7.30872855      10.17897132       0.01286614      -0.04110823      -0.63153493      -0.02347757      -0.29796750      -0.76976551      -0.29832983
C        8.52723310      10.12600265       0.76840309       0.51497160      -0.93361119      -0.71165461       0.60984208      -0.35246242       0.05886059
C        8.60167505       9.62192611       2.17197137      -0.03137969      -0.18863224       0.63373374      -0.05606764       0.15503219      -0.38974474
C        7.39309093      10.05812345       2.87215522      -0.39604767      -1.28833699       0.97997876      -0.72345882      -1.05588500       0.27394017
C        7.38766728      10.12202321       4.23811213      -0.63422354      -0.81274098      -1.27101309      -0.77090597      -1.08116598      -0.10214713
C        8.58387323       9.71769967       4.95814446       0.01709084       1.19849280       0.22558730       0.19958893       0.67939932       0.30369504
C        8.58824078       9.66766243       6.40884672       0.29391701       1.66414654      -0.35232472       0.25066235       1.37275560       0.61699700
C        7.39318955      10.19198723       7.07720692      -0.99981900       0.10673191      -0.05609955      -0.22302994      -0.22040497      -0.41703261
C        7.37000357      10.20316585       8.55003543       0.15717537       0.50621313      -0.16714382      -0.16548752       0.18401260      -0.43048355
C        8.62253262      10.12072858       9.28170380      -0.25062044      -0.29387864      -0.34503859      -0.05861602      -0.19783754      -0.12112769
C        8.59303094       9.89015306      10.68601870      -1.72129774      -0.10874544       0.58538007      -0.43533069       0.40028009       0.53193272
C        7.39765173       9.83185776      11.37755466       0.67818741       0.72669119      -1.24744876      -0.41919029       0.73591089      -0.34541735
C        7.40048295       9.88816683      12.79140648      -0.55931657       0.14511778       0.76614988      -0.81877116       0.47909945       0.00550429
C        8.57285081       9.91503449      13.47453314      -0.50231042       0.92101659       0.51611889      -0.05402428       1.71220555       0.75739611
C        8.57862529      10.34290259      14.87792915      -1.21291820       1.06735841       0.28182813      -1.27894913      -0.20312734      -0.11942784
C        7.38520565       9.91321569      15.60872771      -1.15221073       0.59485047      -0.73615596      -0.76079582       0.43259671      -0.68604810
C        7.31709942      10.07997229      17.01784510       0.83649674      -0.29180443       0.66896978       0.00391385       0.00928167       0.61488252
C        8.53349389      10.23322819      17.80079835       0.40325408      -1.19638933       0.05395255       0.56909419      -0.53572940       0.18634735
C        8.54274879       9.90543502      19.21318048       0.59388891      -0.01572621       0.42386534       0.57958801       0.37982788       0.37517410
C        7.33759238       9.93334543      19.89160982       0.39207894       0.03232996      -0.15982659       0.35590110       0.07039193       0.02270075
C        4.89442419      10.15161454      -0.00681483       0.08280357      -0.02426252       0.00568051      -0.07745049       0.02532523       0.33235545
C        6.09966149       9.76583668       0.70938026       0.37775010       0.04296989      -0.02914185       0.16158694       0.12674383      -0.42698659
C        6.14880057       9.74895776       2.16425609       0.03223367       1.02351631      -0.71362199       0.00180408       0.82790890      -0.29127169
C        4.94285604      10.21832780       2.81740825      -0.33698231       0.28649294      -0.47358280      -0.17105453       0.20434565      -0.07306455
C        4.98523453      10.06041372       4.23014303      -0.15238300       0.33175316       0.69681461      -0.09199417       0.51880941      -0.10184733
C        6.14552456      10.04989979       4.92136867      -0.91902736       0.97729864      -0.43791338      -0.23490272       0.76464406      -0.13252796
C        6.13613417      10.28835947       6.35716888       0.70264928      -0.60191903       0.03595576       0.16335921      -0.81798361      -0.17068712
C        4.97959442       9.79111693       7.08832201      -0.19905228      -0.42007904      -0.01673784       0.40780122       0.21862968      -0.25756294
C        4.96477378       9.75195977       8.54699267      -0.17563085      -0.26268264       0.06189555       0.09657080      -0.48688777       0.14557283
C        6.16586563      10.00308963       9.29217498      -0.32823100       0.27743628       0.50536349      -0.13683315       0.19284530       0.18731769
C        6.17074232       9.97268417      10.64669283       0.22571411       0.19949763       0.11744097      -0.17430673       0.48284686       0.46343072
C        4.95070775      10.26000246      11.38932201      -0.36574639      -0.21978212       0.62749407       0.29801611      -0.30771387       0.66446175
C        4.97623599       9.98642078      12.81610111      -0.02302818      -0.12850703       0.02046414      -0.22670339      -0.21315249       0.18887111
C        6.14399015      10.02193077      13.48522264       0.70118997      -0.32393681      -0.33379467       0.63249283      -0.77886231      -0.49079571
C        6.14348336      10.10312893      14.92879401       1.63896555      -0.85518867       0.01876643       0.32412058      -1.98316938      -0.10602315
C        4.94330541       9.97321637      15.63199873      -0.34116419       0.85889110      -0.53246175       0.24200889       0.66304894      -0.05088125
C        4.92710242      10.11723832      17.02872438      -0.14666114      -0.28387403       1.18214944       0.08282993       0.12492649       0.21087792
C        6.11429207       9.67192903      17.73675611       0.08648925      -0.13807988      -0.04545739       0.55918839       0.18088023      -0.25985003
C        6.10446538       9.69897446      19.17673813       0.33797432       0.24539126      -0.01251901       0.32453865       0.16856079       0.32166693
C        4.88130944      10.16794945      19.85061090       1.01354222      -0.13296505       0.70206384       0.76786569      -0.40035598       0.27406282
C        2.44308315       9.77421719      -0.02552656       0.43844092       0.96766599       0.09837163      -0.15917291       0.65514404       0.01053797
C        3.68668548       9.77043878       0.69733730      -0.46327118       0.51112763       0.14239703       0.28317476       0.40694251       0.21307965
C        3.68443523      10.24847977       2.07524516       0.90305398       0.79888842       0.45887269       0.59778527       0.20848648       0.35833784
C        2.42246465      10.22316281       2.78416476      -0.04499752       0.35162411       1.50925076       0.17710732       0.14072744       1.00179610
C        2.47739442      10.06364373       4.23099959      -1.20092780       0.07732119      -0.48485763      -1.09757769      -0.24087539       0.28561853
C        3.74615861       9.59520256       4.82860643       0.01040808      -0.87240099       1.13169670      -0.16726053      -0.35295125       0.54256539
C        3.71868745       9.69803797       6.33131600      -0.47209851      -0.41732797       0.87886681      -0.25609450      -0.27088878       0.79455295
C        2.45096907       9.86946303       7.09477957       0.67447932      -1.09008377      -0.44935559       0.25728281      -0.57638460      -0.40543439
C        2.43085635       9.95705348       8.56368426       0.73403101      -0.99701785      -0.26609035       0.29808904      -0.81486656      -0.23931665
C        3.68812706       9.78902716       9.30478128      -0.25045607       0.38912161      -0.79187037      -0.06259666       0.19658316      -0.13523162
C        3.68890107      10.34874537      10.67153477       0.49046192      -0.58836730       0.30866676      -0.01597726      -0.69673336      -0.62526028
C        2.47880501       9.96056504      11.38319754       0.10549641      -1.10353369      -0.35141190       0.05385215      -0.46644197      -0.49782817
C        2.52107817       9.75345280      12.80696394       0.23371944       0.06105269       0.35903455       0.30847733       0.04835211      -0.19867098
C        3.79750422       9.57365103      13.60345974      -1.20560136       0.76113099      -0.04553379       0.02042101       0.54140454      -0.34094385
C        3.69548009      10.27533332      14.92957786       0.27654873       0.86895594      -0.90637871       0.43620538       0.53340182      -0.05089464
C        2.49988966       9.91441660      15.68847159      -0.18405768      -0.27799213       0.02690666      -0.46720207      -0.14424555      -0.11563042
C        2.46898359       9.89462735      17.01500066      -0.31069519       0.72289593       0.01784462       0.22728919       0.43796611       0.04632003
C        3.66222712      10.14919009      17.76289414       0.14422095       0.16663041      -0.53395588      -0.04747512      -0.04880705      -0.02092627
C        3.63034243      10.00729760      19.19297326       0.26363735       0.23199938      -0.91752748       0.32263028       0.06675669      -0.22203481
C        2.49301859       9.98964949      19.84534711      -0.88316980      -0.28258978       0.62227412      -0.25571423       0.08847217       0.05349807
C        0.04524772       9.91009930      -0.03830417      -0.02485099      -0.37015784       0.03364240      -0.16932605       0.01185932       0.25967999
C        1.25218448      10.13936005       0.69183053      -0.52760992      -0.97365619       1.42475530      -0.21269678      -0.68357702       0.78436325
C        1.22033369      10.00287779       2.05874247      -0.43991600       0.82091240      -1.07875956      -0.67656404       0.32893818      -0.19780680
C        0.00649945       9.95706019       2.81010322      -0.95235662       0.40220417      -0.29931711      -0.08096166       0.23877363      -0.22667640
C       -0.01603219       9.91435367       4.20862069       0.28244627       0.80965080      -0.25603648       0.13668418      -0.07635580       0.22683882
C        1.22886676       9.62159153       4.94168716      -0.44108720      -0.88477291      -0.60345429      -0.29953777      -0.00585203      -0.51116739
C        1.27174489      10.17902524       6.32146887      -1.39152393       0.10765617       1.18979110      -0.93033200       0.18343816       0.85601144
C        0.00777666      10.26067395       7.08389344       0.33015539       0.03819181       0.11680567      -0.17302327       0.06093478      -0.08326317
C        0.00686562      10.03643454       8.51853333       0.89044605       1.68989294       0.89513213      -0.12709072       1.11122601       0.13748968
C        1.19454155      10.17308487       9.22304714      -1.88828600      -0.05940590      -0.55999103      -0.51299899       0.15445719      -0.00335523
C        1.18691044       9.96874806      10.64982901       0.09641826      -0.94373850      -0.55031920       0.40995175      -0.85374075      -0.32465532
C       -0.05446681       9.90729855      11.38944334      -0.44696229       0.90663925      -0.88578675      -0.44963738       0.52886367      -0.44369465
C        0.03851710      10.21787102      12.77755953      -0.30463184      -0.57361783       0.22545510       0.26591166      -0.45585121      -0.17714995
C        1.24160644       9.92838659      13.49746830       0.15597847      -1.09130793       0.45063324      -0.39957180      -0.71725847       0.34679646
C        1.26142539       9.77563150      14.97393866       0.27515036      -0.41067764      -0.71064902      -0.03436451      -0.32641777      -0.48918462
C        0.04042997       9.90951370      15.69706437      -0.18605045       0.78379731      -1.17570666      -0.22560589       0.50924882       0.17723304
C       -0.01373967       9.92149817      17.03135284       0.63275115      -0.65107008       1.60649974       0.59041200      -0.34965009       0.43073562
C        1.24748060      10.24654894      17.75520859      -0.65310148       0.02379112      -0.01894291      -0.19461577       0.27916647      -0.26586022
C        1.24692575       9.68429924      19.13817752       0.69233114      -0.82894802      -0.46623756       0.38778786      -0.70087091      -0.33857708
C        0.02518220      10.02253370      19.84690866      -0.69736774      -0.19328199      -0.59845375      -0.33393404      -0.07975714      -0.25030424
O       12.30657017      11.43750412      20.63300872       0.02376774      -0.04390246      -0.09468053      -0.10054731      -0.12687845      -0.34392490
O        2.28214681      11.38627968       3.72197414       0.50897788      -0.07896009       0.06607378       0.51286339      -0.33715570       0.35820230
O        0.47794724       8.67937315      10.91913786       1.22625987      -0.64935480      -0.06551674       0.96853095      -0.34061288      -0.06445797
O       15.46977505       8.69145767      13.37622345       0.03159698      -0.93027252      -0.90694873      -0.17652131       0.08487772      -0.33362804
O        2.95621996       8.57686759       6.76368657      -0.13539063      -0.19433191      -0.04613440      -0.14843009      -0.01944907       0.09481108
O        6.07427479       8.49600828       1.40049640       0.12009275       0.22491357       0.03832700      -0.32097061      -0.03133477       0.19179850
O        7.79832936      11.42038804      17.48479319      -0.13074787      -0.11973981       0.10270224       0.00340935      -0.46728304      -0.09158551
O        9.92666072      11.45765212      12.01552819       0.02379804      -0.43499272       0.32739432      -0.05976395      -0.98994389       0.57776783
O       14.15588679      11.35046885      15.03288344       0.52546409       1.45908306      -0.40286131       0.64159278       1.35065622      -0.73884378
O        1.15540093       8.55027574      14.16710798      -0.70525238      -0.18993980       0.55514278      -0.16793151      -0.14163719       0.58882157
O       15.22627741       8.60958090      10.81115485      -0.52905738       1.63376806      -0.29937033      -0.52458547       0.83995565       0.16382299
O       15.68543070      11.47065333       5.72790407      -0.36400985       0.28854668       0.40050903       0.12679231       0.23397641       1.06528024
O       10.44528980      11.43426623       7.01420127      -0.11809405       0.10057371      -0.30189364       0.62536491      -0.35706828      -0.10716088
O       12.68627881       8.45119829       6.49790289      -0.94830994      -0.38414298       0.40047362       0.15587789      -0.11565214       0.56924246
O       14.23877144      11.38749398      17.32369351      -0.23824805       0.61190945       0.42753522      -0.83395714       0.49846404       0.36489860
O        8.56648254       8.42523506       5.63144080      -0.04478722       0.18846945       0.57428925      -0.21931100       0.43268089       0.24894191
O       10.86831051       8.54389641      14.24914989      -0.24750749      -0.31069861       0.46942491      -0.36971273       0.25616199       0.60568291
O       12.98750813       8.65566861       9.11030067       0.15808768       0.95401533       0.03580899      -0.02841456       0.25945277      -0.08637469
O        2.53826430       8.60917408      11.96738295       0.71991054       0.12644167      -0.73724798       0.57009389      -0.02364906      -0.68079113
O        4.38664963      11.51095214       2.29555160       0.62642182      -0.76900196      -0.31286116       0.50801229      -0.34747014      -0.21983572
O       12.94746626      11.37692554       4.74939281       0.83110845      -0.03848583      -0.29391333       0.40621807       0.40929440       0.20271416
O       14.14185322       8.37993049       0.40302740      -1.30892223       0.13204310      -0.85702871      -0.57282688       0.08918301      -0.01496101
O       10.07043649      11.36785979      16.51291254       0.09256661       0.58133407       0.26329094      -0.49700297       0.71648325      -0.04330812
O        0.71666657      11.44167359       6.70033134       0.77276447       0.98092474      -0.75853856       0.86471152       0.33206645      -0.81573789
O       10.34796582      11.45877132       4.69042287      -0.95933572      -0.25130893      -0.11776467      -0.37649494       0.01084096       0.19489775
O        6.04294553       8.39031884      18.41538259      -0.17780261       0.41894664       0.18538728      -0.19937714       0.63011512       0.16877003
O        5.00446800      11.43447691      20.59510565       0.03440422      -0.58937500       0.20869509       0.37095003      -0.61828252       0.17838060
O       10.44340027      11.39014171       2.48825856      -0.02079944       0.07579458      -0.37282386      -0.15228775      -0.34935685       0.31529357
O       12.96924679       8.55596766      12.97220141      -0.52331551      -0.79620020       0.10115070      -0.30147131      -0.84784483       0.23436896
O        8.05608038      11.44328804       8.92769139       0.21714611       0.12543638       0.27210832       0.13038199       0.16444532       0.04041779
O        2.92979972       8.59961045       9.15310011      -0.26064220       0.88830473       0.53409769       0.80391393       0.34997897       0.07208960
O        6.83611398      11.52161039       6.66938873       0.17382964      -0.62570239      -0.25575364      -0.00819674      -0.26355619      -0.31641564
O        4.34607237      11.40420345      17.43385833       0.40419982       0.33997439       0.02802721       0.30733302       0.67328285      -0.18244305
O       16.70810485       8.56922938       0.33948931       0.90450695      -1.11494838       0.16979100       0.36486735      -0.89871971       0.39600103
O        3.04214298       8.51760267       0.42187037       0.53300377      -0.51808258       0.18299169       0.36305542      -0.36008344       0.01717317
O       11.13453160       8.40846120      18.57285539       0.30300002      -0.45811773      -0.33009824       0.61635856       0.19854427      -0.62860564