11984
Lattice="175.5460877107055 -6.413208758571016e-05 -0.27960012536328 -1.7321498936098832e-05 50.00047748350088 0.00016044193948475864 -0.2418763674831201 0.0004881222448863795 151.8176989604515" Properties=species:S:1:pos:R:3:momenta:R:3:forces:R:3 energy=-2381637.75 stress="1.0899097105721012e-05 -1.5116410168047878e-07 -3.1400750231114216e-06 -1.5116410168047878e-07 1.3445402657907835e-07 -1.2286498929370282e-07 -3.1400750231114216e-06 -1.2286498929370282e-07 5.005755156162195e-06" free_energy=-2381637.75 pbc="T T T"
C        1.61738103      18.54988381       0.87602853      -0.82769340      -1.07738383      -0.13694460       0.00070841      -0.00034005       0.00057369
C        2.83534346      18.42206631       1.57985294      -0.68200113       0.15347415      -0.34858545      -0.00039443      -0.00088104      -0.00075750
C        2.79202832      17.91681816       2.89090135      -0.98468833      -0.32841357      -0.58581263       0.00060192      -0.00004604      -0.00006531
C        1.54057184      17.58557568       3.47552582       0.34979665       0.17573713      -0.52945388      -0.00037727      -0.00026238       0.00025471
C        1.49943283      16.94877458       4.70268603       0.90312690      -0.12294284       0.53317458      -0.00025856      -0.00040886       0.00059067
C        2.69375608      16.65842796       5.34675785       0.48579332      -0.38153673       0.31634283      -0.00060341       0.00038689      -0.00053804
C        2.47244487      15.87047596       6.50484654       0.11970853      -0.41734368      -0.41960889      -0.00083685       0.00001216      -0.00033402
C        0.41654887      14.79891305       7.50597928      -0.79109517      -0.73580660       0.48426183       0.00062639      -0.00049320      -0.00061822
C        0.66590635      15.20592993       8.95040366      -0.75234204      -0.42430521      -0.14477871       0.00039950      -0.00008455       0.00023301
C        1.75161417      14.78864324       9.65939497      -0.45124860       0.03487430       0.66093217      -0.00023364      -0.00010066       0.00025401
C        1.88199152      15.00557084      11.07462180       0.52564920      -0.14096927      -0.79714473       0.00005156       0.00040048       0.00072464
C        0.78083142      15.66620874      11.74699001       0.21751515      -0.29608973       0.30318262       0.00010112       0.00038745      -0.00052155
C        0.81608171      15.90267435      13.14332926       0.20051384       0.38263389       0.70480696       0.00058454      -0.00050133      -0.00052775
C        2.14821753      17.88952529      15.03264648       0.36644975      -0.94428293       0.30262515       0.00067147       0.00030467      -0.00000748
C        1.05573448      17.47019504      15.79102593       0.33984306       0.96679511       0.64516205      -0.00014605      -0.00070485      -0.00024089
C        1.11064620      17.64385162      17.20444974      -1.09916280       0.71111334       1.00802913       0.00102317       0.00048581       0.00012338
C        2.35987678      17.93908715      17.84183713      -0.83374275      -0.21989470      -0.76904174       0.00072458      -0.00013924       0.00034501
C        2.32778032      18.08680780      19.23686548       0.26406642      -0.26785820       1.23874503      -0.00067294       0.00022753       0.00026720
C        1.14397843      17.97195026      19.97285668      -0.01314835      -0.16279520      -0.18929846      -0.00046318       0.00040570       0.00045820
C        1.23081466      18.08782498      21.37639921       0.15701827       0.03359594       0.95265753      -0.00021905       0.00100866       0.00018594
C        2.52118970      18.10528201      21.97001108      -0.00103645       0.39981836       0.32576438      -0.00054392       0.00073294       0.00008696
C        2.61950864      18.02820327      23.36040999       0.34925570      -0.47043746       0.84611558      -0.00028436      -0.00041518      -0.00047147
C        1.44739840      18.05821631      24.13489642      -0.03681191       0.32920931       0.83657304       0.00038075      -0.00037642      -0.00021982
C        2.76716166      18.20009231      26.10100860      -0.73044358      -0.25800645      -0.70946645       0.00009170       0.00034541       0.00046447
C        2.71396482      18.61024005      27.45252344       0.47303435       0.38458482       0.06523905       0.00014605       0.00002106       0.00020473
C        1.50979258      19.01236707      28.17100408       0.69203222      -0.51988975       0.45960257      -0.00008656      -0.00034298      -0.00061652
C        1.57279085      19.20778994      29.59650426      -0.03997220      -0.19226907       0.21653362       0.00039087      -0.00040502      -0.00056022
C        2.84859248      19.16649449      30.27055398      -0.84908664      -0.10157055      -0.49539582      -0.00012751      -0.00018097       0.00035280
C        2.92523182      19.46311762      31.66560597       1.05833317       0.53931792      -0.50442071       0.00072254       0.00044612       0.00000092
C        1.75554393      19.66623459      32.43461879       0.28330648       0.18176642      -0.80974880       0.00035322      -0.00030069       0.00011253
C        1.84348814      19.86885562      33.83232813       0.52314064      -0.01356462      -0.39064918      -0.00032581      -0.00052528      -0.00029752
C        1.89674842      19.33855613      36.92109301       0.10731071      -0.74760147      -0.02871129       0.00032470      -0.00091818       0.00043058
C        1.88623822      19.41830588      38.32601147      -0.55628423       1.02740730      -0.89683647       0.00016713       0.00057259       0.00047961
C        3.13150277      19.52897302      38.98719352       0.32708960       0.15297920       0.31131099       0.00012067       0.00019965       0.00073294
C        3.20488037      19.67951616      40.37410397      -0.60855233       0.35571535      -0.30364736      -0.00025997       0.00039768       0.00026754
C        2.01441642      19.59739067      41.14109993      -0.85928316      -0.99179529       0.89481492       0.00048189       0.00056059      -0.00026539
C        2.02985492      19.65886063      42.59640415      -0.44325714       0.84764016      -0.40430694       0.00042011       0.00039259       0.00066876
C        4.90341561      22.01118777      43.03132626      -0.28851640       0.07384136      -0.09901417       0.00009382      -0.00030476       0.00042069
C        4.53596837      22.43945331      44.38864409      -0.24938073       0.11100219       0.17562504      -0.00010455      -0.00049147      -0.00056607
C        4.60900287      23.01370404      47.11577845       0.25952482       0.06407745       0.02350214       0.00025515       0.00007224      -0.00005752
C        2.82783011      21.18249758      49.36086101       1.09962385       1.16315114      -0.76067453       0.00103520      -0.00020480      -0.00145972
C        1.37483963      21.27698138      49.63376521       0.27186861      -0.60349497       0.45925754       0.00004083       0.00029450       0.00027913
C        1.25331319      21.20096221      51.01148041      -0.13136179      -0.03136516      -0.25990143      -0.00047190      -0.00011593      -0.00037688
C        2.49931696      21.28095865      51.67085794      -0.08872311      -0.28912410       0.46757805      -0.00066289      -0.00011224      -0.00035415
C        3.54751477      21.27931045      50.75345730       0.27286153       0.63047549       0.05984573       0.00073165      -0.00020322       0.00022537
C        1.48754064      20.86406819      53.76926205      -0.31914606      -0.59079833      -0.24563045      -0.00063127      -0.00025566       0.00023046
C        1.88777583      20.43297439      55.02537019      -0.03063287      -0.64676869      -0.01372841       0.00036794      -0.00045957      -0.00029826
C        3.21011380      20.43654622      55.67817495      -1.23332983      -0.51862835      -0.20676429       0.00007692       0.00016104      -0.00017247
C        3.18742273      20.56653406      57.12037132      -0.15638694      -0.78288151       1.10379446      -0.00013471       0.00045100       0.00098683
C        1.91684988      20.70353143      57.77071938      -0.49647990      -0.80534551      -0.44114924      -0.00038537      -0.00011963       0.00032513
C        1.83818320      21.11566455      59.11061256       0.36389760      -0.04011185      -0.03690982       0.00093731       0.00065199      -0.00005829
C        3.01730841      21.46685156      59.79780167       0.75953131       0.60765225       0.43527473       0.00031847       0.00086647      -0.00030674
C        2.93505868      21.96354404      61.13497676      -0.79002544      -0.45414358       0.81792027       0.00057267       0.00090304       0.00067502
C        1.66425683      22.02226739      61.78816878      -0.08306609      -0.07427649       0.05460908       0.00063407      -0.00045631       0.00012136
C        1.56596568      22.42401430      63.10363106      -0.87134947       0.59255969       0.25741536       0.00083613      -0.00027563      -0.00074701
C        2.72517582      22.82221251      63.86905128      -0.28510661      -0.81796319      -0.32500091      -0.00043488       0.00011712      -0.00090946
C        2.73676197      19.04723793      65.46475666      -0.46997610      -0.27350831       0.51775690       0.00042504       0.00048820       0.00053909
C        1.44028493      19.36130752      65.94972313      -0.91155610      -0.40548772      -0.76565306      -0.00049543      -0.00048219       0.00102463
C        1.21438107      19.58715793      67.37017533       0.09625479      -0.65941490      -0.86075225       0.00037706       0.00017436      -0.00067610
C        2.19804812      18.96011234      68.13322676      -0.23235893       0.58959508       0.42813954       0.00028202       0.00029607      -0.00006945
C        2.16584451      18.79054998      69.56081504      -0.27027475       1.08563435      -0.77889564      -0.00012583      -0.00025129       0.00059438
C        1.12036582      19.37725347      70.28545610       0.19218801      -0.11848749      -0.09766850      -0.00017530       0.00031428      -0.00006193
C        3.14475913      14.43566625      72.99116983       0.01500649       0.96747634      -0.41823479      -0.00040814       0.00060815      -0.00026998
C        3.29319309      14.67883629      74.43335322       0.73730565      -0.86003869       0.89307245       0.00055155       0.00042283       0.00075032
C        2.04304611      14.85687663      75.04849783      -0.88362248       0.13954547      -0.01742572       0.00040052       0.00009587      -0.00045452
C        1.88867662      14.90557472      76.44628020       0.19937530       0.07603674      -0.56834751       0.00049435      -0.00000555      -0.00033581
C        3.12707069      14.87225425      77.18814186      -0.68617272      -0.18574250      -0.96134430      -0.00064813       0.00063080       0.00138701
C        3.10324432      14.65360157      78.59831282       0.12270210       0.16808666       0.09053279      -0.00028490       0.00066712      -0.00056949
C        1.84944979      14.51153410      79.26246287      -0.11818652      -0.14402205       0.29936281       0.00020971       0.00016310       0.00005675
C        1.83087129      14.25293559      80.67066245      -0.11794358      -0.36420649       0.26532841       0.00004748      -0.00013227       0.00116215
C        3.04576829      14.08296016      81.38361090      -0.33223021       0.81126771       0.53047088      -0.00011335      -0.00069765       0.00029589
C        3.02452416      13.86911349      82.79704762      -0.49562914       0.49574472       0.31502911      -0.00048329      -0.00109840      -0.00112690
C        1.81571317      13.87441209      83.53766478       0.43559085       0.41092364       0.08101161      -0.00047611      -0.00061234       0.00044645
C        1.81365767      13.75824012      84.98570286      -0.12038915       0.22532856      -0.02688852      -0.00005994       0.00062090       0.00036214
C        3.06672254      13.50663853      85.59560024       0.20676027       0.56652676      -0.04984947      -0.00017084       0.00057065       0.00038593
C        1.21656731      14.48878254      88.29781350       0.03517187      -0.41679007      -0.54892084      -0.00028324       0.00067271       0.00005629
C        3.23771096      12.59904912      89.60717670      -0.70827462      -0.37896241       0.03171019       0.00176467       0.00127909      -0.00100815
C        1.69112525      15.06618478      91.62022171       0.97257610      -0.05829388      -0.08025791      -0.00078113       0.00062567      -0.00024673
C        1.65125868      15.34825215      93.00281994       0.22357538       0.36729557       0.09492363       0.00019076      -0.00023811       0.00022033
C        2.84632003      15.29337925      93.76382785       0.45196242       0.55505263      -0.37319418       0.00043837      -0.00073182       0.00010069
C        2.84452634      15.41902523      95.16436111       0.49167491       0.54502477       0.28996033       0.00114937       0.00015555       0.00012499
C        1.60318819      15.65841603      95.83054039      -0.26764799      -0.41708943       0.16510128       0.00000586       0.00018897      -0.00082292
C        1.55790330      15.71044514      97.24427092      -0.15726680       0.28254137      -0.41495291       0.00040599      -0.00053956       0.00040473
C        2.75620999      15.54018146      97.99372343       0.27440822      -0.11977624       0.12280009       0.00046630       0.00028899       0.00099227
C        2.70115088      15.58774604      99.41933873      -0.33633623      -1.15436946      -0.96948946      -0.00004873      -0.00107854      -0.00044888
C        1.43753929      15.71172520     100.08644918      -0.00804090      -0.07028361      -0.15182022      -0.00078416      -0.00030958       0.00031742
C        1.38928938      15.67951934     101.51022975      -0.55946097      -0.07871193       0.17926216      -0.00017563       0.00043142       0.00016288
C        2.61445788      15.78497426     102.26853938      -0.00962468       0.96524821       0.06316906       0.00067334      -0.00001898      -0.00044376
C        2.64857980      16.19796157     103.64205443      -0.03364148       0.25301891      -0.19988723       0.00011614      -0.00036174      -0.00032589
C        1.44125571      17.84306784     108.18343151      -0.14939389      -0.63235536       0.04920332      -0.00013459       0.00111431       0.00006935
C        0.93077833      16.59293180     108.80648624       0.80817395      -0.16541940      -0.61908340       0.00085056      -0.00085390       0.00014343
C        1.25388027      15.91321031     110.01555516       0.26453490       0.29509876      -0.39086316      -0.00073938       0.00093647      -0.00015861
C        2.51324368      15.92240657     110.74754564      -0.26760663      -0.23930471      -1.00706873      -0.00063113      -0.00008523       0.00064172
C        2.50989320      15.63301171     112.15874426      -0.01925899       0.20679233      -0.55695643      -0.00043790      -0.00037406       0.00065082
C        1.27149317      15.26724719     112.79109138       0.52341554       0.86632394      -0.03299294       0.00047677       0.00169993      -0.00047483
C        1.18732365      15.14708126     114.17351596       0.27008982       0.67724591      -0.05244179       0.00108295      -0.00036231       0.00095646
C        2.28683225      15.28397878     115.06335114       0.32858826      -0.55234765       0.29689893      -0.00011510      -0.00075067      -0.00160658
C        3.62071474      15.35401288     114.44476231       0.02170811      -0.57019807      -0.15944187      -0.00028048       0.00032984      -0.00026658
C        1.71391301      15.17777499     116.37796139      -0.73094015      -0.28433112      -1.14261938      -0.00077665       0.00024528      -0.00001287
C        1.92389239      15.39937492     117.82277033      -0.45063376      -0.15804292       0.00468812       0.00067580       0.00055195      -0.00022084
C        2.87591186      16.00383982     118.65498815      -0.27224774      -0.04940439       0.12764641       0.00023182       0.00005902       0.00028870
C        2.71838995      15.91615035     120.07693522      -0.59548678      -1.65304727       0.03067380      -0.00006416      -0.00032419       0.00004871
C        1.46912554      15.54577317     120.70424938       0.74201704      -0.66691824      -0.23646338      -0.00010390       0.00008626      -0.00047642
C        1.25058324      15.75212081     122.12177611      -0.10740207      -1.05647611      -0.62392396       0.00028318       0.00108398       0.00051374
C        2.43703995      15.86790670     122.89802514      -0.59112932       0.27716402       0.77358161       0.00063747      -0.00017810       0.00001191
C        2.43002922      15.75046973     124.30775838       1.57689021       0.50879486      -0.35689030       0.00068413       0.00077430      -0.00028571
C        1.20473895      15.48451237     124.95783012       0.74155255       0.55389347       0.12795505       0.00040826      -0.00036494      -0.00015689
C        1.21072537      15.13436803     126.30669310       0.51256554       0.72849959      -0.24494992       0.00055325       0.00002858       0.00006449
C        2.46486548      14.96998702     126.97846649       0.92090403       0.74191100       0.05417808      -0.00016659       0.00055769      -0.00058179
C        2.80697878      14.30783978     128.15566707       0.16463539      -0.46413219       0.45678603      -0.00111851      -0.00082108       0.00055824
C        1.79977931      13.56343119     128.93351905       0.28023966      -0.23953120       0.53539259      -0.00088698      -0.00041735       0.00042689
C        1.63486690      13.72738291     130.40676943       0.46623293      -0.62166665      -1.13099344       0.00030378      -0.00121809      -0.00009936
C        2.64543272      14.62031204     130.93368436       0.50684194       0.87807615      -0.58672709       0.00078112      -0.00102605       0.00114932
C        2.74445457      15.32032433     132.15335372       0.29406354      -0.25062011       0.54374973       0.00043076      -0.00027682       0.00041233
C        1.71385312      15.75788016     133.02376005       0.43891648       0.05909124       0.16550344      -0.00066787       0.00075055       0.00213401
C        2.02116730      16.19084899     134.34415818       0.38234751      -0.10204674       0.01399587      -0.00112061       0.00059649      -0.00180043
C        3.40389244      16.34292289     134.60863860       0.15067054       1.02948976       0.84035801      -0.00067545      -0.00086506      -0.00016072
C        4.05558978      16.69585708     135.79369924      -0.91541871      -0.28029785      -0.15907915       0.00019825      -0.00045468      -0.00125867
C        2.29120499      16.98129533     137.48755188       0.22314619      -0.43652361       0.15255892      -0.00012577       0.00039212       0.00117695
C        2.19958817      22.62493119     141.01700132      -0.45055879      -0.08657794       0.78577395       0.00026435      -0.00058968      -0.00032417
C        3.41141337      22.41631251     141.72674092       0.00173920      -0.20006017      -0.03519484      -0.00043939       0.00002961      -0.00034475
C        3.30945522      21.78695450     143.03259345      -1.25918491      -0.70200690      -0.07805504       0.00031091      -0.00019965      -0.00014871
C        2.04804263      21.39527037     143.54316084       0.88450404      -1.21287199      -0.59251326       0.00047281       0.00039271      -0.00043714
C        1.92302126      20.77292859     144.79713024       0.04337689       0.21950251      -1.02017446      -0.00051647      -0.00052889      -0.00057372
C        3.07434557      20.54923418     145.57671415       0.64432572       0.43624815       0.17798500      -0.00060485      -0.00052422      -0.00041762
C        4.09329847      21.47741282     148.66566733       0.26597488       0.62482668      -0.64318913      -0.00170418       0.00242943       0.00065639
C        1.54490476      19.35078126     148.63936995       0.93493047       0.03704464      -0.01756789       0.00007000      -0.00008205       0.00008252
C        1.65633416      19.69204140     147.29718546      -0.23858341       0.33050692      -0.06178605       0.00129846       0.00077146      -0.00042453
C        2.65025312      19.09692606     150.72327566      -0.29716588       0.42960962      -0.25265625       0.00008859      -0.00017933      -0.00043249
C        1.41215522      18.87719802     151.33163837      -0.11694540      -0.33145360       0.92572809      -0.00022337      -0.00096528      -0.00044626
C      174.73101116      18.31276485       0.48984185       0.47837881       0.84540303      -0.06453484      -0.00194910       0.00079051      -0.00034355
C        0.37307510      18.22124442       1.48401009      -1.11035238      -0.26205351      -0.45149498       0.00132546       0.00011372      -0.00031770
C        0.32522063      17.71591590       2.80157307       0.16442574      -0.47069643       0.47694957      -0.00078821       0.00017916       0.00010058
C      174.65943483      17.28796430       3.14184122      -1.03762831       0.53756774      -0.17815731       0.00055996      -0.00014357       0.00057237
C      174.61984762      16.71657134       4.49199736      -0.30669861       0.83323749      -0.43974867      -0.00067177      -0.00022072       0.00070992
C        0.38469619      16.39215025       5.37659086       0.94231228       0.62221097       0.29400146       0.00091010      -0.00040264      -0.00129656
C        1.03585997      15.67095098       6.50560879      -0.94387972       0.91914845       0.86086963       0.00032571       0.00044486       0.00063511
C      174.07881391      16.41314879       8.60474124       0.55936375      -0.10135329      -0.06150773       0.00155805      -0.00110875       0.00112019
C      175.17925524      15.92811320       9.31887113       0.75645570      -0.71825020       0.01764103      -0.00067574       0.00053987       0.00124966
C      175.18844472      16.09099374      10.72690563       0.48656472      -0.65126786      -0.12265319       0.00005323      -0.00014112       0.00103885
C      174.05664136      16.61969801      11.40052969      -0.41559350       0.32607751       0.00652776       0.00048736      -0.00048439       0.00041769
C      174.08317901      16.82223900      12.80331566      -0.63316404      -0.07111267      -0.74434678       0.00160545       0.00008416       0.00010859
C      175.29589163      16.60589760      13.52601648      -1.36089436       0.41692331      -0.75556814      -0.00059752       0.00007133      -0.00011170
C      175.37088217      17.07946932      14.88155586       0.42882254       0.16229845      -0.41489072       0.00020519       0.00030783      -0.00008552
C      174.16128319      17.32642709      15.58396845       0.21927777       0.07572812       0.29327043      -0.00122783       0.00081433      -0.00022741
C      174.18519142      17.53637158      16.99381155       0.54282307      -0.57523625       0.67064233      -0.00086495       0.00062111      -0.00016561
C      175.43640524      17.61138481      17.65842318       0.38511618       0.96072480       0.35018148      -0.00080910      -0.00004262       0.00002256
C       -0.10111658      17.79806410      19.33333006      -0.58975402      -0.35492532      -0.16987029       0.00143609       0.00007340      -0.00064343
C      174.23876042      17.88577510      19.80953380      -0.23249080      -0.10887335      -1.57507317       0.00038633       0.00019931      -0.00024283
C      174.32708669      18.09075803      21.20753593       0.75176222       0.35115874       0.12169592      -0.00079145      -0.00047581       0.00013193
C        0.05838455      18.14623968      22.14923282      -0.01338052       0.34908326      -0.25845544       0.00038840       0.00121996       0.00046629
C        0.16339007      18.27154884      23.57462567      -0.28518047       0.34822146      -0.25018526       0.00069855       0.00024494       0.00048187
C      174.49912329      18.61165565      24.01255716      -0.57068868       0.48749808      -1.03668060      -0.00153879       0.00059269       0.00005503
C      174.47764838      19.06936130      25.34340397      -0.51425463      -0.93675191       0.71339821      -0.00078328       0.00058015       0.00010814
C        0.24599773      19.26662614      27.58965308      -0.38527449      -0.65203845      -0.01840986      -0.00022262       0.00023368      -0.00014451
C      174.62523174      19.38274314      28.07850955       0.05495715       1.04885627      -0.25898870       0.00028121       0.00051174       0.00074819
C      174.69748247      19.42825293      29.46316761       0.11876613       0.32297012       0.26856417       0.00132911      -0.00002796       0.00006247
C        0.39660206      19.42224512      30.38455047      -0.11214652       0.71857625       0.21435888      -0.00053409      -0.00047874      -0.00012158
C        0.46877720      19.59645187      31.80145956      -0.99353356      -0.34175897      -0.08354819       0.00034726      -0.00008246       0.00036192
C      174.93294906      19.72599386      32.35968697       0.50323249      -0.60319985       0.63879648       0.00025398       0.00006759       0.00023642
C      174.97600890      19.76251586      33.74794822       0.03929947       0.49523013      -0.20889097      -0.00034928      -0.00022358      -0.00000393
C        0.72677301      19.75223034      34.70217576      -0.46901929      -0.06932357      -0.57387451       0.00102919       0.00085777      -0.00042894
C        0.74853065      19.57146853      36.15907575       0.73644958       0.18902690      -0.06687533       0.00066860       0.00003414      -0.00037486
C      175.06002137      19.53657162      36.62819317      -0.06244117       0.43440043       0.32250357      -0.00062364      -0.00003650       0.00001123
C      174.98064266      19.33314856      38.05922037      -0.15363072       0.26657650      -0.13443918       0.00083897       0.00019484       0.00115102
C        0.67585742      19.40161397      39.04994912      -0.69168369       0.10210673      -0.54476317      -0.00050703       0.00048956       0.00070024
C        0.76300048      19.41906101      40.46461660       0.72099535       0.42261307      -0.14235747       0.00125921       0.00026616      -0.00133835
C      175.09806068      19.21707634      40.90844096      -1.04429974      -0.13595707      -0.35306814      -0.00009698      -0.00027922      -0.00024204
C      175.14124206      19.27821981      42.31478461       0.01288961       0.71052490      -0.61088261       0.00040600      -0.00021678      -0.00061195
C      174.80398792      20.29763180      45.13790485      -1.00256603       1.18616485      -0.54006385      -0.00017540      -0.00012879       0.00053276
C      174.58143591      20.72140483      46.43679478      -0.05712296       0.50668885      -0.63729508      -0.00038072       0.00018552       0.00001195
C        0.16784314      21.41040235      47.39953720      -0.29975260       0.32962404      -0.99111158      -0.00005400      -0.00031335      -0.00014854
C        0.19949275      21.22950987      48.87243074      -0.31624509       0.75168312      -0.39436408       0.00074428      -0.00065521       0.00001855
C      174.52063899      21.00220273      49.24982216       0.23963173       0.02051145       0.02551814      -0.00066300      -0.00053094      -0.00030585
C      174.45072677      20.70759372      50.63704219       0.37797119      -0.58561600      -0.26536509       0.00132565       0.00076956      -0.00100574
C        0.08146377      20.91770979      51.69347831       0.63628990      -0.16583885       0.31429708      -0.00051042       0.00028625       0.00054727
C        0.16600933      20.80050229      53.11976264       0.36023206       0.29993980       0.88711131      -0.00128579      -0.00047977       0.00008479
C      174.46413032      20.63585726      53.43163647      -0.42194967      -0.22533947       0.38346528       0.00186658       0.00024781       0.00021762
C        0.72567096      20.35290920      57.09189668       0.39871650       0.20781634      -0.41063414      -0.00057876      -0.00020108      -0.00014362
C      175.00750702      20.39339497      57.43925038      -0.80959791       1.18743082       0.41348765       0.00056769       0.00054725      -0.00066186
C      174.96758637      20.72082975      58.82805032      -0.64403871       0.52539068      -0.13910192      -0.00177215      -0.00041425      -0.00011298
C        0.58383719      21.15346885      59.77875219      -0.01885700       0.08987360       0.01671806       0.00116255       0.00098883      -0.00050965
C        0.50047713      21.58823735      61.11316618       0.69711592       0.62027048       0.39614517       0.00011024      -0.00001284      -0.00037272
C      174.82780839      21.51644389      61.54661303       0.73180891      -0.92059865       0.39588383      -0.00048614       0.00059767       0.00035423
C      174.78106611      21.90311103      62.90723822      -0.60914090      -0.86363837       0.32296474      -0.00123128       0.00030872       0.00077236
C        2.93287322      19.04710877      64.04447897       0.23802324       0.24324492       0.16177094      -0.00018112       0.00042599       0.00063384
C      174.76095779      21.51537991      65.89360990       0.39460417      -0.19133316      -0.96814198       0.00125268       0.00018202      -0.00003436
C      174.72399009      21.13804317      67.24715797       0.17517189      -0.06742990       0.13620052       0.00037059       0.00026037       0.00040113