210
Lattice="17.21658502723464 0.0 0.0 0.0 20.0 0.0 0.0 0.0 21.299999999999997" Properties=species:S:1:pos:R:3:QM_forces:R:3:FF_forces:R:3:MACE_forces:R:3 QM_energy=-46722.449948146386 FF_energy=-46724.441673324305 config_type=0.40-0.25 MACE_energy=-46722.796875 pbc="T T T"
H        0.29058998       7.87421317       4.71477984       0.24559391      -0.03237552       0.06610046       0.15677010      -0.30848768       0.04631628       0.25242010       0.00365053       0.01744072
H        4.50060233      12.04443712      14.76197560      -0.69808517       0.56482705      -0.29706486      -1.25115916      -0.05122245      -0.22080277      -0.61061460       0.51031387      -0.17342751
H       10.21880089       7.84852031      10.36728956       0.22500002      -0.12019383       0.15918668       0.20403583      -0.54224557       0.01678117       0.21971282      -0.13228437       0.20761812
H        0.54982750       7.86510847      18.73573959       0.26186052      -0.05862514       0.22345093       0.29943587       0.24840290       0.19930881       0.24297392      -0.07559975       0.21341491
H        1.74323280      11.96429137      18.62887503       0.25369778       0.21851229       0.23662977       0.18934482       0.31854626       0.17945172       0.24039377       0.23795751       0.28907287
H        4.36812271       7.79795048      13.18772457      -0.24361860      -0.43090661       0.17401658      -0.03125476      -0.38262939      -0.18668970      -0.31450641      -0.42715013       0.16711381
H       16.36761857      12.25217100      15.70800630       0.08968994       0.08419061       0.09055904      -0.21410643       0.27088307       0.00012849       0.09138188       0.09293794       0.09018597
H       15.86828067       7.99601186       7.71538696       0.01933817      -0.33046177       0.13422548       0.45579830      -0.83256517       0.24007480       0.00350519      -0.26304483       0.12825391
H        7.72913225      12.27656219      14.33251522       3.12694576      -3.43815939      -6.44003006       1.76734878      -3.20203601      -1.89314868       1.94936442      -3.20721436      -4.73512650
H        8.62480430       7.87058619       3.17902669      -0.21110474      -0.16247021       1.53616575      -0.20203093       0.10258453       1.88176754      -0.20094496      -0.21158934       1.54009891
H        7.29069741      12.55720558      14.85273863      -8.78843904       1.80366443       6.34614586      -4.19929737       1.23241655       2.62299929      -5.55055714       0.33309412       4.62991905
H        2.98458503       7.78898823       4.88119187      -1.50916798      -0.71905879       0.44937174      -1.28728504      -1.03994100       0.13531198      -1.54764795      -0.70262098       0.44460714
H       11.76313239      12.07244286      14.53904079      -0.13312323       0.05142056      -1.27754784       0.17600935      -0.12164514      -0.91926375      -0.12382132       0.07233683      -1.29412425
H       14.09441943      12.23564911       9.90659254       0.04578456       0.20831577       0.06242029       0.18680195      -0.02729733      -0.07056630       0.05680619       0.23813514       0.03012457
C       14.74944348       9.59938368      -0.02019366       0.75632169       1.54943817       1.02956737       0.25924931       1.36848248      -0.12981424       0.73663008       1.50155842       1.02611864
C       16.02569157       9.78050255       0.71092655      -1.29662377      -0.46776988      -0.01262069      -0.52895497      -0.50822832       0.12447009      -1.30315125      -0.49397725      -0.05813161
C       16.02296080      10.04601165       2.10737474       0.65031368      -0.39950289       1.12262838       0.08292919      -0.15188936       0.32942687       0.52280694      -0.55659914       1.17084229
C       14.78730122      10.18705632       2.83481717       0.43033102       0.34820436      -0.31586464      -0.22416634       0.38307193      -0.55929944       0.28449231       0.25887102      -0.39590240
C       14.75275633       9.91889430       4.22772253       0.31362971       0.30751972       0.14054402      -0.18522829      -0.09681293      -0.17459908       0.38282236       0.17261156       0.04287347
C       15.97585819      10.04993296       4.92271860       0.15947849      -0.64309273       0.14890706      -0.02318884      -0.04709397      -0.26261964       0.07799077      -0.56853324       0.10280117
C       15.92444667      10.21517331       6.37271886      -0.13970816       0.24936485      -1.03772933       0.35427249       0.36565105      -0.37596638      -0.17803773       0.30503243      -1.05527174
C       14.81471789       9.52668835       7.11219577      -0.06453918      -0.43994658      -0.39881517      -0.52722680       0.42819577      -0.43254727      -0.01668128      -0.45485055      -0.46240452
C       14.78102695      10.07280505       8.49206747       0.50698288       0.39156013       0.31637148       0.22138768       0.60452317       0.23693062       0.54854369       0.33608156       0.38968444
C       15.96837625      10.17155029       9.17721684      -0.82736840      -0.39202951      -0.56245976       0.16116613      -0.54707273      -0.18036932      -0.77004749      -0.42908704      -0.50542992
C       15.90651298       9.95872310      10.61310172       0.91712923      -0.51409349       0.15913460       0.60893958      -0.23635810      -0.33263446       0.94484991      -0.54189336       0.15298519
C       14.68759576       9.89128789      11.31519319      -0.52990225      -1.52964520       0.35220409       0.09935506      -0.71264156       0.13880203      -0.59290379      -1.48541367       0.35839292
C       14.76634696       9.80788308      12.78456382       0.26991720       0.85393306       1.30575872      -0.00353333       0.69505295       0.64289308       0.23272198       0.84362781       1.33714485
C       16.05559954       9.98764025      13.50994101      -0.14020820       0.71608953       0.31475522      -0.06806590       0.04085939       0.46421460      -0.08266383       0.66503638       0.28038809
C       16.14278617      10.42652582      14.91470678      -0.62943872      -0.15293118      -0.55023828       0.04638534       0.29777895      -0.35678267      -0.57567191      -0.06610096      -0.55193055
C       14.81886394      10.17419574      15.54467450      -0.06828665       0.68302205      -0.39848640      -0.70950747       0.83262334      -0.15029202      -0.09796101       0.71434230      -0.37983859
C       14.81975626      10.12128398      17.01813928       0.17743229       0.21097358       0.26100300      -0.66490027      -0.20493619      -0.05142192       0.20742953       0.25598782       0.20829420
C       16.02657454       9.80426821      17.78319546      -0.13820224       1.19971205      -1.19787307      -0.14480024       1.01841517      -0.97237259      -0.15654221       1.15629172      -1.17234409
C       16.05360917       9.93743847      19.17103737       0.39435105      -0.12820970      -0.05168028       0.13712531      -0.04867376      -0.26852972       0.44653293      -0.12881412       0.02875720
C       14.81819367      10.13442076      19.91178657      -0.27257411      -1.19802720      -0.81190370      -0.40897677      -0.82721181      -0.32153302      -0.29543123      -1.20332265      -0.87834728
C       12.34995842      10.18504611       0.03197616      -0.99255376      -0.55767762      -1.36046101      -0.85114096      -0.74460326      -0.71569601      -1.01949131      -0.53733867      -1.38791883
C       13.51244253       9.70344248       0.70435022       1.11448146      -0.10748072       0.65466010       0.26784397       0.12236257       0.34572505       1.11714447      -0.09218121       0.65419304
C       13.50126119      10.07941207       2.10048320      -0.06936408       0.52299717       1.05307348       0.17433566       0.01736835       0.63906709       0.07353786       0.50083655       1.07266784
C       12.30852462       9.80409692       2.85719238       0.25382388       0.12799999      -0.46990457      -0.13128877       0.48488926      -0.79637971       0.22780028       0.25305101      -0.46988654
C       12.28405261      10.01727803       4.24140355      -0.48006980       1.51114564       0.06694638      -0.29936356       0.98249375       0.48988403      -0.45488638       1.51601183       0.02364606
C       13.53258842      10.07927963       4.96445670       0.91257480       0.64446890       0.77824274       0.74509627      -0.03387471       0.19511896       0.90191579       0.65367657       0.75685918
C       13.50703198       9.59068224       6.34801528       0.50341734       0.19261409       0.47388206       0.21712496       0.60659860       0.32690112       0.51086485       0.23212045       0.50762010
C       12.25824474       9.72030624       7.09025232       0.72104402      -0.07893155      -0.85684090      -0.15906875       0.44855126      -0.28845139       0.71152067      -0.09278584      -0.83603942
C       12.26564969       9.82173762       8.53136360       0.48414898      -1.47028444       0.59638946       0.09051833      -0.91601541       0.46307211       0.46198213      -1.48460817       0.58562195
C       13.52931379      10.03571469       9.21802813       0.09753383      -1.08017924       0.30424052      -0.41933683      -0.55524801      -0.13215728       0.09597757      -1.06603980       0.30370125
C       13.49211095      10.50204716      10.62426165      -0.11908813       0.77935726       0.79415974      -0.23532223       0.16350147       0.90624267      -0.02615862       0.77038860       0.80792725
C       12.24440403      10.14981825      11.30603923      -0.97774954      -0.57461761      -0.50360309      -0.42466924      -0.31028597      -0.24145825      -1.03899598      -0.48621428      -0.49581245
C       12.21675839       9.86972707      12.68029394       0.90905980      -0.60636387       0.64538264       0.56037227      -0.44670470       0.65029454       0.89819747      -0.61221498       0.63299406
C       13.43940462       9.80070870      13.44769186       1.36825076      -0.42887827      -0.37300396       0.79765977      -0.35584825       0.51588655       1.39062607      -0.47426838      -0.38351506
C       13.49204855      10.17161102      14.85883428      -0.07059044      -0.53579798      -0.07606775       0.26302786      -0.27943399      -0.36427426      -0.05932528      -0.53286445      -0.08711272
C       12.19010459      10.36359241      15.60208840       0.52568713       0.64580520       0.00798129       0.67865026       0.00733446       0.19987225       0.51463789       0.60336447       0.01398057
C       12.28050529       9.92420281      17.01277814       0.11531679       0.86492779       0.03125457       0.20698344       0.32716356       0.40963831       0.10700637       0.82104719       0.08662000
C       13.52171456      10.13614558      17.70249076      -0.39717943       1.17130121      -0.22238969       0.36057979       0.76508577       0.11800582      -0.46654657       1.15857017      -0.19443618
C       13.57525137      10.25445036      19.16060824       0.53723519      -0.09557744       0.58271555      -0.45430998       0.05217411       0.41968745       0.50213391      -0.10394740       0.54428649
C       12.29642773      10.20220538      19.88344786      -0.10331037       0.19355428       0.50408201       0.02143602      -0.26111671      -0.32688172      -0.04602501       0.20021755       0.54121655
C        9.77959563      10.09200331      -0.01433297      -0.04118326      -0.92054961       0.44360802       0.33604666      -0.59691826       0.45915505      -0.01248610      -0.98943973       0.42740798
C       11.07443609      10.07577546       0.72121206      -1.62632458       1.09980668      -0.91278713      -0.87210510       0.74448340      -1.38397135      -1.57427800       1.11750948      -0.94592667
C       11.10296905      10.04159002       2.16526573      -1.02060723       0.39381057       0.19849112      -0.79826825       0.34333575      -0.41208793      -0.97443622       0.38921094       0.20798871
C        9.81891087      10.16254615       2.83026320       0.53732662       0.05549400      -0.05066012       0.15582929      -0.14915739       0.28844368       0.54633933       0.08245713      -0.05647239
C        9.79141369      10.15768010       4.29149091       0.41362301       0.25654280       0.86338203       0.08603989      -0.32639501       0.51578138       0.40111047       0.29069459       0.86461031
C       11.04649212      10.25406768       4.99431668      -0.22318088      -0.08252390      -0.03319263      -0.71253043       0.08262449       0.12181147      -0.22763115      -0.08556563       0.05119862
C       11.08617915      10.28738584       6.47085958      -0.70669154      -0.80431666      -0.20524498      -0.49910231      -1.01674141      -0.21287537      -0.72537446      -0.83957767      -0.17211619
C        9.80074528      10.10440939       7.14253155       0.86935542      -0.26560308      -0.10662241       0.01676690      -0.38597540      -0.05196334       0.84286678      -0.21907818      -0.06170745
C        9.83675806       9.86557743       8.55428725       0.75936117       0.66029370       0.82314812      -0.03402900       0.04367350      -0.17035281       0.73494047       0.64616811       0.84478199
C       11.00459678       9.97914407       9.21632795      -0.54210998      -1.27557593      -0.67586578       0.08449213      -0.49676463      -0.52073204      -0.52506220      -1.27798748      -0.70850301
C       11.03076459       9.63789526      10.62561327       0.88145940      -0.15545848       1.07104094       0.22061203       0.28939412       0.59791528       0.88936764      -0.21629500       1.04928398
C        9.81966065      10.14665976      11.34229094       0.61327135      -0.28997007       0.56840094      -0.00569866      -0.07333042       0.03770126       0.61506504      -0.24449235       0.60055178
C        9.79512035      10.21610641      12.80230326       0.31839142      -0.85613273      -1.43911926       0.44257481      -0.70226125      -0.93804314       0.24501133      -0.92094183      -1.51948750
C       10.98917019       9.74009671      13.47880138      -0.17352769       0.86634397      -0.21576188      -0.33094041       0.68917006      -0.62324459      -0.17474824       0.89743364      -0.16442537
C       11.00905905       9.81460953      14.92561973       0.36295520      -0.06433763      -0.27642982       0.28166869      -0.44806845      -0.15349183       0.26544419      -0.12521729      -0.23557100
C        9.84832063      10.26463097      15.65091535      -1.30662647      -0.02463898       0.03170693       0.22455240       0.05760022      -0.30980914      -1.29300797      -0.05021709      -0.14667445
C        9.84424935      10.12508896      17.10961805      -0.67087447      -0.40981322       0.21946598      -0.62955290      -0.09632841       0.36511916      -0.59501034      -0.39311486       0.23809588
C       11.08990355       9.62864980      17.75043491      -0.13985415      -0.49714690      -0.46660077      -0.46191408       0.56355199       0.08743623      -0.20246238      -0.48797917      -0.45562929
C       11.07220815       9.66998313      19.24727500      -0.74375996       0.73714423      -0.25470342      -0.32604308       1.10562241      -0.19910006      -0.64524853       0.77381623      -0.34096950
C        9.76567813       9.85150914      19.86766168      -0.21575809       0.17162829       0.22925029       0.33161341      -0.19507655       0.20178978      -0.19995081       0.20322473       0.17119187
C        7.30872855      10.17897132       0.01286614      -0.04110823      -0.63153493      -0.02347757      -0.29796750      -0.76976551      -0.29832983      -0.08570194      -0.58805269      -0.02883508
C        8.52723310      10.12600265       0.76840309       0.51497160      -0.93361119      -0.71165461       0.60984208      -0.35246242       0.05886059       0.51921868      -0.86154097      -0.69610989
C        8.60167505       9.62192611       2.17197137      -0.03137969      -0.18863224       0.63373374      -0.05606764       0.15503219      -0.38974474      -0.04722574      -0.18058527       0.60442859
C        7.39309093      10.05812345       2.87215522      -0.39604767      -1.28833699       0.97997876      -0.72345882      -1.05588500       0.27394017      -0.32872385      -1.24491167       1.01857328
C        7.38766728      10.12202321       4.23811213      -0.63422354      -0.81274098      -1.27101309      -0.77090597      -1.08116598      -0.10214713      -0.63606483      -0.79450911      -1.30235302
C        8.58387323       9.71769967       4.95814446       0.01709084       1.19849280       0.22558730       0.19958893       0.67939932       0.30369504      -0.02031375       1.23086238       0.18643329
C        8.58824078       9.66766243       6.40884672       0.29391701       1.66414654      -0.35232472       0.25066235       1.37275560       0.61699700       0.36424553       1.65003467      -0.33311379
C        7.39318955      10.19198723       7.07720692      -0.99981900       0.10673191      -0.05609955      -0.22302994      -0.22040497      -0.41703261      -1.04085839       0.17217296      -0.05880806
C        7.37000357      10.20316585       8.55003543       0.15717537       0.50621313      -0.16714382      -0.16548752       0.18401260      -0.43048355       0.21724695       0.49790508      -0.15322953
C        8.62253262      10.12072858       9.28170380      -0.25062044      -0.29387864      -0.34503859      -0.05861602      -0.19783754      -0.12112769      -0.23183110      -0.31834620      -0.34867421
C        8.59303094       9.89015306      10.68601870      -1.72129774      -0.10874544       0.58538007      -0.43533069       0.40028009       0.53193272      -1.69088531      -0.16163230       0.53903878
C        7.39765173       9.83185776      11.37755466       0.67818741       0.72669119      -1.24744876      -0.41919029       0.73591089      -0.34541735       0.64750218       0.70366460      -1.14829016
C        7.40048295       9.88816683      12.79140648      -0.55931657       0.14511778       0.76614988      -0.81877116       0.47909945       0.00550429      -0.51217163       0.08364838       0.65757710
C        8.57285081       9.91503449      13.47453314      -0.50231042       0.92101659       0.51611889      -0.05402428       1.71220555       0.75739611      -0.42117164       1.01471066       0.56793463
C        8.57862529      10.34290259      14.87792915      -1.21291820       1.06735841       0.28182813      -1.27894913      -0.20312734      -0.11942784      -1.30339956       1.46939623       0.19525999
C        7.38520565       9.91321569      15.60872771      -1.15221073       0.59485047      -0.73615596      -0.76079582       0.43259671      -0.68604810      -1.17263544       0.78113705      -0.75930393
C        7.31709942      10.07997229      17.01784510       0.83649674      -0.29180443       0.66896978       0.00391385       0.00928167       0.61488252       0.80710977      -0.29411662       0.63826787
C        8.53349389      10.23322819      17.80079835       0.40325408      -1.19638933       0.05395255       0.56909419      -0.53572940       0.18634735       0.44451180      -1.19825602       0.04343961
C        8.54274879       9.90543502      19.21318048       0.59388891      -0.01572621       0.42386534       0.57958801       0.37982788       0.37517410       0.56189179       0.08305886       0.45032597
C        7.33759238       9.93334543      19.89160982       0.39207894       0.03232996      -0.15982659       0.35590110       0.07039193       0.02270075       0.37940392       0.03096996      -0.09285459
C        4.89442419      10.15161454      -0.00681483       0.08280357      -0.02426252       0.00568051      -0.07745049       0.02532523       0.33235545       0.10234958      -0.02329791      -0.02967048
C        6.09966149       9.76583668       0.70938026       0.37775010       0.04296989      -0.02914185       0.16158694       0.12674383      -0.42698659       0.42106450       0.04225594      -0.06445336
C        6.14880057       9.74895776       2.16425609       0.03223367       1.02351631      -0.71362199       0.00180408       0.82790890      -0.29127169       0.01490259       0.94490504      -0.72075236
C        4.94285604      10.21832780       2.81740825      -0.33698231       0.28649294      -0.47358280      -0.17105453       0.20434565      -0.07306455      -0.30489779       0.29143810      -0.46732819
C        4.98523453      10.06041372       4.23014303      -0.15238300       0.33175316       0.69681461      -0.09199417       0.51880941      -0.10184733      -0.19921198       0.34243745       0.73319012
C        6.14552456      10.04989979       4.92136867      -0.91902736       0.97729864      -0.43791338      -0.23490272       0.76464406      -0.13252796      -0.93578893       0.95001137      -0.43242729
C        6.13613417      10.28835947       6.35716888       0.70264928      -0.60191903       0.03595576       0.16335921      -0.81798361      -0.17068712       0.73331022      -0.62304908       0.00495396
C        4.97959442       9.79111693       7.08832201      -0.19905228      -0.42007904      -0.01673784       0.40780122       0.21862968      -0.25756294      -0.22201061      -0.43495446      -0.01436460
C        4.96477378       9.75195977       8.54699267      -0.17563085      -0.26268264       0.06189555       0.09657080      -0.48688777       0.14557283      -0.18230236      -0.31459618       0.03869519
C        6.16586563      10.00308963       9.29217498      -0.32823100       0.27743628       0.50536349      -0.13683315       0.19284530       0.18731769      -0.28324479       0.28311771       0.49343359
C        6.17074232       9.97268417      10.64669283       0.22571411       0.19949763       0.11744097      -0.17430673       0.48284686       0.46343072       0.27224767       0.25952446       0.06126060
C        4.95070775      10.26000246      11.38932201      -0.36574639      -0.21978212       0.62749407       0.29801611      -0.30771387       0.66446175      -0.28166133      -0.22283351       0.54433447
C        4.97623599       9.98642078      12.81610111      -0.02302818      -0.12850703       0.02046414      -0.22670339      -0.21315249       0.18887111      -0.01372291      -0.12463875       0.03828922
C        6.14399015      10.02193077      13.48522264       0.70118997      -0.32393681      -0.33379467       0.63249283      -0.77886231      -0.49079571       0.70872819      -0.47268236      -0.39988571
C        6.14348336      10.10312893      14.92879401       1.63896555      -0.85518867       0.01876643       0.32412058      -1.98316938      -0.10602315       1.50591373      -0.91734350       0.07670879
C        4.94330541       9.97321637      15.63199873      -0.34116419       0.85889110      -0.53246175       0.24200889       0.66304894      -0.05088125      -0.35315469       0.81831348      -0.49056673
C        4.92710242      10.11723832      17.02872438      -0.14666114      -0.28387403       1.18214944       0.08282993       0.12492649       0.21087792      -0.13904905      -0.14121503       1.12302804
C        6.11429207       9.67192903      17.73675611       0.08648925      -0.13807988      -0.04545739       0.55918839       0.18088023      -0.25985003       0.08984622      -0.05760396      -0.07910055
C        6.10446538       9.69897446      19.17673813       0.33797432       0.24539126      -0.01251901       0.32453865       0.16856079       0.32166693       0.38564342       0.18365386       0.01029712
C        4.88130944      10.16794945      19.85061090       1.01354222      -0.13296505       0.70206384       0.76786569      -0.40035598       0.27406282       0.99445724      -0.08141607       0.73610294
C        2.44308315       9.77421719      -0.02552656       0.43844092       0.96766599       0.09837163      -0.15917291       0.65514404       0.01053797       0.42176569       0.96347702       0.12028027
C        3.68668548       9.77043878       0.69733730      -0.46327118       0.51112763       0.14239703       0.28317476       0.40694251       0.21307965      -0.42458624       0.48930857       0.14836960
C        3.68443523      10.24847977       2.07524516       0.90305398       0.79888842       0.45887269       0.59778527       0.20848648       0.35833784       0.92645109       0.80049849       0.51864499
C        2.42246465      10.22316281       2.78416476      -0.04499752       0.35162411       1.50925076       0.17710732       0.14072744       1.00179610      -0.05042970       0.38470560       1.47052240
C        2.47739442      10.06364373       4.23099959      -1.20092780       0.07732119      -0.48485763      -1.09757769      -0.24087539       0.28561853      -1.22236896       0.08086973      -0.44672465
C        3.74615861       9.59520256       4.82860643       0.01040808      -0.87240099       1.13169670      -0.16726053      -0.35295125       0.54256539       0.04187009      -0.85736185       1.08302999
C        3.71868745       9.69803797       6.33131600      -0.47209851      -0.41732797       0.87886681      -0.25609450      -0.27088878       0.79455295      -0.51822072      -0.42440528       0.93034178
C        2.45096907       9.86946303       7.09477957       0.67447932      -1.09008377      -0.44935559       0.25728281      -0.57638460      -0.40543439       0.60007441      -1.08887577      -0.45202297
C        2.43085635       9.95705348       8.56368426       0.73403101      -0.99701785      -0.26609035       0.29808904      -0.81486656      -0.23931665       0.74695706      -0.94982445      -0.23609477
C        3.68812706       9.78902716       9.30478128      -0.25045607       0.38912161      -0.79187037      -0.06259666       0.19658316      -0.13523162      -0.28884375       0.33822495      -0.85609555
C        3.68890107      10.34874537      10.67153477       0.49046192      -0.58836730       0.30866676      -0.01597726      -0.69673336      -0.62526028       0.49740446      -0.61240041       0.31394076
C        2.47880501       9.96056504      11.38319754       0.10549641      -1.10353369      -0.35141190       0.05385215      -0.46644197      -0.49782817       0.17390662      -1.13602877      -0.30082279
C        2.52107817       9.75345280      12.80696394       0.23371944       0.06105269       0.35903455       0.30847733       0.04835211      -0.19867098       0.16347238       0.05855012       0.30714706
C        3.79750422       9.57365103      13.60345974      -1.20560136       0.76113099      -0.04553379       0.02042101       0.54140454      -0.34094385      -1.20151281       0.83367956      -0.06499839
C        3.69548009      10.27533332      14.92957786       0.27654873       0.86895594      -0.90637871       0.43620538       0.53340182      -0.05089464       0.28913033       0.88101321      -0.97834396
C        2.49988966       9.91441660      15.68847159      -0.18405768      -0.27799213       0.02690666      -0.46720207      -0.14424555      -0.11563042      -0.19716194      -0.31052753       0.05597341
C        2.46898359       9.89462735      17.01500066      -0.31069519       0.72289593       0.01784462       0.22728919       0.43796611       0.04632003      -0.24275343       0.78476691      -0.02814327
C        3.66222712      10.14919009      17.76289414       0.14422095       0.16663041      -0.53395588      -0.04747512      -0.04880705      -0.02092627       0.12390321       0.12091100      -0.52228546
C        3.63034243      10.00729760      19.19297326       0.26363735       0.23199938      -0.91752748       0.32263028       0.06675669      -0.22203481       0.26834553       0.25374365      -0.96763045
C        2.49301859       9.98964949      19.84534711      -0.88316980      -0.28258978       0.62227412      -0.25571423       0.08847217       0.05349807      -0.93528897      -0.31484827       0.64673674
C        0.04524772       9.91009930      -0.03830417      -0.02485099      -0.37015784       0.03364240      -0.16932605       0.01185932       0.25967999      -0.05519089      -0.30251497       0.02476996
C        1.25218448      10.13936005       0.69183053      -0.52760992      -0.97365619       1.42475530      -0.21269678      -0.68357702       0.78436325      -0.53367937      -1.00439429       1.54446936
C        1.22033369      10.00287779       2.05874247      -0.43991600       0.82091240      -1.07875956      -0.67656404       0.32893818      -0.19780680      -0.53257716       0.81527042      -1.12980330
C        0.00649945       9.95706019       2.81010322      -0.95235662       0.40220417      -0.29931711      -0.08096166       0.23877363      -0.22667640      -0.86119431       0.36244515      -0.30192298
C       -0.01603219       9.91435367       4.20862069       0.28244627       0.80965080      -0.25603648       0.13668418      -0.07635580       0.22683882       0.38819134       0.92586130      -0.19843811
C        1.22886676       9.62159153       4.94168716      -0.44108720      -0.88477291      -0.60345429      -0.29953777      -0.00585203      -0.51116739      -0.46766651      -0.83993441      -0.58986729
C        1.27174489      10.17902524       6.32146887      -1.39152393       0.10765617       1.18979110      -0.93033200       0.18343816       0.85601144      -1.34040093       0.11980134       1.13807249
C        0.00777666      10.26067395       7.08389344       0.33015539       0.03819181       0.11680567      -0.17302327       0.06093478      -0.08326317       0.29862601       0.00155044       0.20100857
C        0.00686562      10.03643454       8.51853333       0.89044605       1.68989294       0.89513213      -0.12709072       1.11122601       0.13748968       0.92928332       1.74021697       0.90151203