12973
Lattice="175.47573489784003 -0.0003485791424820501 0.14375675818497613 -9.865831082495413e-05 50.00159741471587 0.0001427457736590958 0.12467055956263648 0.00043833249346695956 151.89929982505734" Properties=species:S:1:pos:R:3:momenta:R:3:forces:R:3 energy=-2675389.5 stress="-7.675509550608695e-06 -1.5279722376249083e-08 -2.797825572997681e-06 -1.5279722376249083e-08 -1.1825044765600978e-07 -1.0240539971562157e-08 -2.797825572997681e-06 -1.0240539971562157e-08 1.2142684681748506e-05" free_energy=-2675389.5 pbc="T T T"
C      172.40187932      25.65728692     147.15845482      -0.64707970      -1.10969201      -0.58414021       0.00150493       0.00124815       0.00045648
C      173.70185892      25.57133121     147.83919899       0.46741584       0.28543056      -0.00783471       0.00269926       0.00171399      -0.00069284
C      173.86648812      24.75427405     149.02309643       0.36625667      -0.63619887       0.39010187       0.00096717      -0.00043219       0.00049669
C      172.69892224      24.20145851     149.59569696      -0.50918268       0.03977135       0.08023810       0.00132231       0.00080451      -0.00132377
C      172.74663971      23.50496743     150.81851346      -0.24864982       0.93314711      -0.23413646      -0.00145242      -0.00109391       0.00065373
C      173.96899516      23.27085808     151.46026394       0.43394811       0.20890922      -0.25002979       0.00053703      -0.00039873       0.00041114
C      173.88824124      22.51936749       0.77357265      -0.28943822      -0.30433494       0.09037973      -0.00090824      -0.00084458       0.00034762
C      172.66970901      22.08657801       1.42473294       0.07354370      -0.85860130       0.47303068       0.00055005       0.00006895       0.00030942
C      172.74843531      21.37177545       2.66295355      -0.54800470       0.07610350      -0.83987307       0.00079295      -0.00076537      -0.00047654
C      174.03295919      20.97050909       3.12524436      -0.40109335       0.35348058      -0.19994764      -0.00005031       0.00023425      -0.00025034
C      173.49416267      23.31266660       5.11007667      -0.04976039      -0.27558790      -0.40699060       0.00073799      -0.00009924      -0.00038512
C      172.53284519      22.28955326       5.52686190       0.76251592       0.19649064      -0.28512907      -0.00017137       0.00054286       0.00040972
C      172.45567280      22.37392239       6.91351874      -0.32665005       0.38730060      -0.39151400      -0.00097235      -0.00053480       0.00110027
C      173.33997176      23.34864121       7.39499944      -0.07809519      -0.10562174      -0.02196296       0.00076618       0.00144024       0.00047296
C      173.30927612      23.73272715       8.71925666      -0.13453998       0.14849979      -0.56103342      -0.00086515      -0.00084266       0.00079858
C      172.49840346      23.00228843       9.65924855      -0.20052024      -0.04212871       0.70224626       0.00053716       0.00047761       0.00047611
C      172.58965564      23.09814384      11.10405663       0.36791252      -0.42802021      -0.10341073      -0.00233741      -0.00157633      -0.00022716
C      173.76219711      23.62626473      11.72809509      -0.88577460      -0.31648959      -0.43464613       0.00054103       0.00000314      -0.00002572
C      174.30079827      23.64473073      13.09893492      -1.07873781      -0.01164880      -0.90493775      -0.00007117      -0.00007471      -0.00002137
C      173.28551752      21.33765377      15.34048574       0.40920993      -0.63608176       0.62299529      -0.00067329       0.00052485       0.00103135
C      173.05908908      22.30585684      16.41118010       0.25798478       1.07874091      -0.20037457      -0.00050348      -0.00081921      -0.00004034
C      174.01932728      23.34066527      16.71570847       0.46179497       0.47946024      -0.53217836      -0.00016785      -0.00050144       0.00023243
C      174.11057918      23.82918582      18.07948498      -0.24675920      -0.52724042      -0.41987623      -0.00000259      -0.00047161       0.00078781
C      172.94818573      23.64460436      18.88456067       0.56317875       0.07285290       0.43084414       0.00106514       0.00025174      -0.00092830
C      172.91644936      24.16285120      20.20262509       0.13975207       0.23618198       0.44467805      -0.00046328       0.00008333      -0.00027476
C      175.17531228      22.23481708      22.16599790       1.47649400      -0.74142852       0.15070424       0.00053738      -0.00064272      -0.00065807
C      174.67134331      23.17370376      22.99542945      -0.12810657       0.29447754       0.75225384       0.00005120       0.00031745       0.00035357
C      173.35299091      22.92134872      23.67265664      -0.62267482      -0.26118090       0.70288819      -0.00168395      -0.00060076       0.00053889
C      172.94361041      23.59443657      24.91003176       0.45864308      -0.28808508      -0.81002063       0.00062361      -0.00116909      -0.00024234
C      174.01902345      24.33762359      26.88684959      -0.93039272       0.50229714      -0.02848909      -0.00019938       0.00062761       0.00012089
C      172.79515743      24.61199247      27.48325211       0.15716412       0.16221117      -0.71602252      -0.00108919       0.00021221       0.00020366
C      172.75980634      25.12975233      28.79170707       0.00947367      -0.97292442       0.47449989      -0.00036266      -0.00035599       0.00045310
C      173.94904810      25.45644291      29.43213366      -1.37025623      -0.94897433      -0.13232323      -0.00109012      -0.00000335      -0.00014374
C      173.75932229      26.09186772      30.76045626       0.44870241       0.52876617       0.29649500       0.00022444       0.00010541       0.00066492
C      172.64393155      25.50847658      31.56628426       1.15569301      -0.48673721      -0.51477680       0.00017321       0.00019380      -0.00018342
C      172.72537391      25.29660716      32.95676697       1.41425929      -0.24495838      -0.22106423      -0.00015072      -0.00045419       0.00084083
C      173.98439476      25.28619915      33.67028153      -0.48121958      -0.35577572      -0.26699915      -0.00013037      -0.00045757       0.00095958
C      173.97736206      25.45450511      35.07487754      -0.09310553      -1.14075029      -0.48158696       0.00079168       0.00073563       0.00012240
C      172.77330509      25.32005110      35.80726576      -0.31527806      -0.39959670      -0.03906722       0.00003125       0.00013496       0.00018908
C      175.28797990      28.31013777      37.09670898      -0.59067655       0.06208102      -0.10284271      -0.00089082       0.00047791      -0.00034738
C      172.93543873      25.97634097      40.04594273      -0.29950008      -0.27935876       0.33797798      -0.00026283      -0.00033134      -0.00053548
C      172.75338514      26.23060237      41.49123810       0.06706639      -0.58916572       0.24001578       0.00026107      -0.00084127      -0.00093573
C      173.97499022      29.62254084      41.12923336       0.06623861       0.07260849      -0.89211803       0.00018099      -0.00037515      -0.00035255
C      173.70334224      27.29084260      43.48260133      -0.09660372      -0.38275510       0.53183414       0.00100107       0.00064863       0.00090264
C      172.73274274      26.60548594      44.23852980      -0.26513811      -0.96898517      -0.54121433      -0.00002326      -0.00007275       0.00088805
C      173.63304154      28.48185980      47.59111720      -0.22165327      -0.02008211       0.93424803       0.00062060       0.00032315      -0.00062373
C      173.47265090      28.78201197      46.19842117       0.31962471       0.73350831      -0.04263872      -0.00042379       0.00065738      -0.00019027
C      172.54663186      27.87278299      48.31311333      -0.23100233       0.20417816       0.46968610      -0.00007055       0.00009816       0.00018530
C      172.53068514      28.00660413      49.73043840       0.54451369       0.19578145       0.10334686      -0.00097707      -0.00011953      -0.00011307
C      173.73568230      28.38300481      50.39248427      -0.09321502      -0.03780432      -0.92450049       0.00006774      -0.00012222       0.00043097
C      173.72105250      28.34158033      51.81902752      -0.34474974       0.26544152      -0.93636641      -0.00180572      -0.00042611      -0.00051568
C      172.57807367      28.05069790      52.60463961      -1.00014941       0.32087786       0.84285832      -0.00003704      -0.00040919      -0.00024995
C      172.70404204      27.91570374      54.02397066      -0.42060900      -0.42293545      -0.11004607       0.00007114      -0.00017656      -0.00055033
C      173.99386538      27.75131597      54.65946832      -0.43533677       0.08763085      -0.15793333       0.00013629      -0.00052959       0.00016101
C      173.96506470      27.45884049      56.05464893       0.13268970       0.03119066      -0.17559367       0.00047320       0.00027221       0.00061772
C      172.88205544      27.85257672      56.90952391       0.23704342      -0.33931259       0.29646278       0.00192860      -0.00030172       0.00046004
C      172.98705161      28.13462306      58.35039606       0.37073304       0.03162863      -0.09431023      -0.00056189       0.00068654       0.00027195
C      174.17931518      28.19842343      59.18293757      -0.00400215      -0.27492986      -0.07034862       0.00055517       0.00009286      -0.00034473
C      174.07846345      28.42808425      60.58561310      -0.73777100      -0.32872593       0.30690838      -0.00028056       0.00055082       0.00003581
C      172.88550086      28.96224353      61.15805716       0.93404897      -1.22916853      -0.58155978      -0.00039381       0.00064560      -0.00010279
C      173.01744584      29.75628902      62.35464422      -0.54670755      -0.67062472       0.76986856       0.00083748      -0.00003436       0.00053586
C      174.14997743      29.58011171      63.18837000      -0.16899202       0.04788905      -0.17462090      -0.00078067       0.00052032       0.00098232
C      174.47072028      30.39214926      64.35477116      -0.00363234      -0.23031572      -0.05665263      -0.00033165       0.00095686      -0.00038883
C      173.75309234      31.65118291      64.49266564       0.43786810      -0.57180498      -0.02533176      -0.00057107      -0.00093475      -0.00073808
C      172.65679865      31.86631603      63.58500046       0.89273852       0.21741557       0.38752683      -0.00031430       0.00073922       0.00111157
C      174.61978832      30.73330889      68.14659213      -0.83989284      -0.83912781      -0.27597528       0.00066447       0.00018305       0.00080635
C      174.39146735      30.36397942      69.47932695      -1.13159060       0.50246145      -1.30453297      -0.00027817      -0.00015952       0.00007738
C      173.10215866      30.38662467      70.12846412       0.42758091      -0.32666553      -0.26675511       0.00088769       0.00123423       0.00098434
C      173.03317172      30.47462943      71.55181249       0.53025496      -0.41418072       0.85126736      -0.00017022      -0.00045514      -0.00042549
C      174.23744436      30.44094971      72.30858574       1.00396474      -0.60392611       0.95310897      -0.00075888       0.00004819       0.00009033
C      174.20306920      30.65519484      73.73131621       0.05816450       0.06205900      -0.60305208       0.00020440       0.00141086       0.00013932
C      172.92848160      30.67284668      74.42357646       0.13689555       0.31032179      -0.26633757       0.00016317       0.00099421       0.00041245
C      172.74042308      30.47370423      75.80250258      -0.10287213       0.75885709      -0.26001813      -0.00004530       0.00056061       0.00036693
C      173.77042060      33.63693931      78.06660264      -0.01463123       0.61171880       1.01246479       0.00084639      -0.00052243       0.00063339
C      175.11247282      33.20451422      77.68681750       0.51374077       0.94183184       0.71673757      -0.00047791       0.00037535      -0.00020754
C      172.91235880      29.91578076      78.02974248       1.28224622      -0.32253413      -0.14519688       0.00014842      -0.00059368       0.00073299
C      173.50060330      31.87693869      80.86794136      -0.83301713       0.97253816       0.09520093       0.00147381      -0.00056958       0.00012885
C      173.73577298      30.92614598      81.95479697       0.54888463       0.24380145       0.61893488      -0.00111850       0.00040163      -0.00051695
C      172.54589808      30.41430036      82.59138299      -0.09085786       0.85957464      -0.18154504       0.00107151      -0.00036151       0.00014731
C      172.50969093      30.36061086      84.01543889       0.07004698      -0.59091295       0.24791302      -0.00027806      -0.00065795      -0.00023150
C      173.70500476      30.62812549      84.71960478       0.49106077       0.25173713       1.17766733       0.00066172       0.00015862       0.00007276
C      173.64644047      30.84254065      86.11258069      -0.05430546       0.69624692       0.22492638      -0.00074565      -0.00034445      -0.00104807
C      172.41357095      30.82901234      86.79821572       0.11939371       0.26074839       0.29401892       0.00036145       0.00069463      -0.00064147
C      173.99600619      29.15930041      90.50988515       0.77542618       0.22668637      -0.44637817      -0.00087553      -0.00052319      -0.00067322
C      172.71209281      28.99604587      91.08553856      -0.48584736       0.53139557      -0.78039811      -0.00118196      -0.00089899      -0.00116116
C      172.65909259      28.78950427      92.51788544      -0.19971440      -0.24481486       0.14746651      -0.00096497       0.00022731      -0.00064647
C      173.81853808      28.75644400      93.31451804       0.36984641      -0.03446761      -0.01484127       0.00243180      -0.00030229       0.00009149
C      173.78658355      28.58571001      94.81876068      -0.02521511      -0.22980113      -0.83321476      -0.00114371      -0.00023013       0.00022727
C      172.58801936      27.78934292      95.27251104       0.53930251       0.29285567       0.21545826       0.00074659      -0.00033420      -0.00087987
C      172.61730815      27.10085029      96.48714803      -0.31617144       0.72718835      -0.75527748      -0.00094861      -0.00051740      -0.00043011
C      173.93775578      26.79183459      97.19232962      -0.75062882      -0.69883036       0.11744081       0.00019690       0.00145853      -0.00016671
C      173.90405571      27.10735804      98.70400759      -0.14852266      -0.76844614       0.49761066       0.00125977      -0.00001806      -0.00072792
C      172.55617353      26.66478222      99.28211444      -0.38588272       0.91564910       0.60616422       0.00053748      -0.00107181      -0.00089383
C      174.09098837      25.53792886     102.67221565      -1.17310294      -0.48616572      -1.31837975      -0.00026779      -0.00000598      -0.00021377
C      172.85312978      25.40713459     103.33468528       0.52634898       0.02383788       0.20000795       0.00066862       0.00100699      -0.00017369
C      172.82123131      25.56621561     104.74742475      -1.19903526      -0.72146495       0.48934914      -0.00027775      -0.00038755      -0.00026132
C      174.03281758      25.60592491     105.48983577      -0.01032509      -0.48364257      -0.34521994      -0.00005153      -0.00086387      -0.00103936
C      174.03537422      25.61255889     106.90196180       0.53001551      -0.37651425       0.49852186       0.00002781      -0.00048929       0.00071165
C      172.77532335      25.64640340     107.58756878       0.59124830       0.46146389       0.00576855      -0.00262997      -0.00015650      -0.00075246
C      172.73191729      25.67217122     108.99176216       0.17570271      -0.34736249      -0.66591063       0.00055188       0.00005622       0.00093624
C      174.01595368      26.13031082     109.57465050      -0.22280274       0.25856954       0.46417088      -0.00076061       0.00054005      -0.00076991
C      172.74982441      24.76020411     111.96965418      -0.57754652       0.15064115       0.72705236      -0.00004870       0.00017147       0.00029223
C      172.68849617      24.92270071     113.37923567      -0.03875936       0.56647491       0.53491554       0.00175991      -0.00039443      -0.00017148
C      173.91768567      25.12473981     114.11688461       0.34960255       0.05006680       1.28791286       0.00028011      -0.00010294      -0.00039057
C      173.90914695      25.35694068     115.52519780      -0.81416006       0.41140630      -0.00990643       0.00020938       0.00008823      -0.00074917
C      172.68123723      25.34313495     116.27122754      -0.71846975      -0.54601936      -0.25258838      -0.00054522       0.00065666       0.00016028
C      172.71860973      25.67687759     117.66986362      -0.40109956       1.01227589       0.05375742      -0.00000482       0.00008261       0.00077904
C      173.94035287      25.69119983     118.38056757       1.22153325      -0.86778410      -0.47644351      -0.00075680      -0.00063545      -0.00022455
C      173.91971957      25.89608830     119.85810911      -0.27634670       0.49005354       0.95054580      -0.00042753       0.00018182      -0.00007291
C      172.66965102      25.52261162     120.55750137       0.62519954       0.20467013      -0.62592289      -0.00011986      -0.00035591      -0.00041944
C      172.60609994      25.24818994     121.97578025      -0.63636203      -0.43809609       0.13729043       0.00014935      -0.00056010       0.00018593
C      173.69616924      25.35270099     122.85518503       0.25057927      -0.22434519       0.59910449      -0.00093225       0.00006759       0.00003684
C      173.57425589      25.21802865     124.24030891      -0.04072306       0.72521428       0.47502604      -0.00021441      -0.00047910      -0.00110358
C      172.31023167      24.85630012     124.80348078      -0.55165622      -0.36721715      -0.17309834       0.00099622       0.00063688      -0.00013763
C      172.79540330      27.73214373     125.94806159       0.74677143       0.57268249       0.67296067      -0.00057200       0.00034733       0.00085963
C      173.77865744      27.07497399     126.79419691      -0.52513054       0.12327318      -0.02062513       0.00010230      -0.00038633       0.00070581
C      173.83675016      27.47809465     128.15110598      -0.05388184      -0.37369597      -0.29360605       0.00068849      -0.00095820      -0.00093424
C      172.69406961      28.10499331     128.77493814       0.24971030       0.14708148      -0.19022190      -0.00033515       0.00019290       0.00004473
C      172.71744967      28.22757258     130.19047973       0.63807683      -0.95848580      -0.29805830       0.00021249      -0.00049324      -0.00003265
C      173.93543876      27.99814194     130.91665226       0.02300474      -1.29448864       0.66193820       0.00106341       0.00114758      -0.00008743
C      173.96261640      28.18604290     132.30664667      -0.12692507       0.11054341       0.69733882      -0.00056177      -0.00006711      -0.00003514
C      172.77846915      28.44823550     133.05921742       0.13474296       0.24653659       0.25461421       0.00037272       0.00018528      -0.00072601
C      172.80206265      28.48764512     134.49747007      -0.88533969       0.33252619      -0.47330579      -0.00019550      -0.00012970       0.00053656
C      174.01216068      28.06272156     135.10765684       0.06858046      -0.83808517      -0.10145410       0.00065080      -0.00040811       0.00160718
C      172.66514276      28.57044739     138.30541968       0.43439281       0.10648408       0.05583000      -0.00001401       0.00017789      -0.00034770
C      172.76365403      27.55846364     139.25928857       0.23726096       0.14144532      -0.20715624      -0.00043541       0.00028402      -0.00128919
C      173.96377660      27.40522662     139.98208309       1.15572994       0.14665377      -0.57406289       0.00067289      -0.00007316       0.00009144
C      174.10166654      26.41703718     140.95894112       0.39857967      -0.55763424       0.31983768      -0.00150800      -0.00103800       0.00070679
C      172.96512232      25.65514885     141.32326817      -1.22992608       0.86861265       0.00634191       0.00100537       0.00053313      -0.00158700
C      173.01108565      24.88528839     142.50883534      -1.18389725      -0.00456420      -0.39554415       0.00031756       0.00057675      -0.00070365
C      174.24311316      24.73797290     143.20528343      -0.11861568       0.41784787       0.24741897      -0.00094588      -0.00204105       0.00123701
C      174.28108676      24.02063258     144.42584895      -0.78607588       0.08159995      -0.04376976       0.00062727      -0.00087640       0.00177550
C      173.03714000      23.66344622     145.09494127       0.03319610      -0.17162476      -0.74312408       0.00018468       0.00067136      -0.00062862
C      170.21676225      24.60888721     146.58945725       0.51017041      -0.77654733      -0.22397603      -0.00291070       0.00042662       0.00000852
C      171.35345784      24.73541956     147.60052222      -0.63149604       0.83230449      -0.12311307       0.00029325       0.00035363      -0.00132785
C      171.44529389      24.24904919     148.89340116      -0.99348222      -0.33496291       1.12089141       0.00028890       0.00066361       0.00019792
C      170.32506738      23.17279202     150.74428696      -0.09663496       0.59691378      -0.10284532      -0.00103515      -0.00010630       0.00122520
C      171.54419164      23.05093809     151.42656907       0.24502971      -0.22240224       0.01580906       0.00101990       0.00072564      -0.00095017
C      171.44437218      22.47219819       0.79271442      -0.97345462       0.95142153       0.59900724       0.00016618      -0.00050206      -0.00032541
C      170.36497670      20.53238162       2.92037865       0.53854116       0.18720271       0.05087365       0.00072297      -0.00101650       0.00009835
C      171.58677450      21.12402773       3.49707670       0.40212433      -0.50522718       0.06493667       0.00071076       0.00026197      -0.00070852
C      171.55511862      21.49741013       4.84515487       0.46271032       0.12986159      -0.27605932      -0.00032807      -0.00018328       0.00042914
C      170.38348143      21.14948552       5.63404569      -0.05426262       0.53641474       0.03195363      -0.00026211      -0.00015457       0.00081941
C      170.36408216      21.26497910       7.04384756      -1.04341492       0.39666593       0.80846508      -0.00096412      -0.00028875       0.00005864
C      171.46785382      21.83956132       7.72264262      -0.42513068       0.39838103      -0.93810863      -0.00034549      -0.00058468      -0.00094925
C      171.49587558      22.12639131       9.10384040      -0.17540393      -0.19721773      -0.58970770      -0.00022112       0.00050638      -0.00014193
C      170.42235652      21.60167677       9.88071135       0.36424712      -0.05935542       0.26866591       0.00058670       0.00072810      -0.00013445
C      170.49447662      21.63291280      11.30041041      -0.03024215       0.20743861      -0.04557229       0.00051953       0.00086766       0.00079018
C      171.56787272      22.40942790      11.91180672      -0.77133353       0.65163191      -0.22497855       0.00081977       0.00061067       0.00021774
C      172.04778298      20.53212614      14.86085816      -0.40092177      -0.13538454      -0.89273784       0.00091243       0.00045946       0.00004208
C      170.72903474      21.04382667      15.30849363      -0.35648615       0.02818809      -0.04134462       0.00060743      -0.00063248       0.00005588
C      170.66857348      21.74604036      16.53248952      -1.05315709       0.71938522       0.05629511      -0.00047002      -0.00012669      -0.00045203
C      171.85367512      22.30112454      17.12089377       0.44265794       0.22276633       0.04228912       0.00154990       0.00037548      -0.00090732
C      171.77655800      23.03510969      18.33662732      -0.38197770      -0.46378774      -0.00816952      -0.00032741      -0.00044623      -0.00111704
C      170.54300896      23.11750365      19.01145276       0.22744463      -1.09217513      -0.24396629      -0.00145598      -0.00057060      -0.00021148
C      170.50141924      23.64956231      20.31618832       0.25005526       0.22463407       0.99504721       0.00055908       0.00008708      -0.00009471
C      171.68736511      24.14473036      20.91431654       0.19796368      -0.77416588      -0.59833137       0.00027508       0.00049969      -0.00042221
C      172.52281668      21.97531878      23.22470837       0.30189398      -0.07637927       0.59438914       0.00180349       0.00078352      -0.00035654
C      170.49253318      24.33071016      22.98871013       0.38732820       0.88892213       0.42021414      -0.00076067      -0.00034961      -0.00075978
C      170.73346296      24.82571489      24.39654227      -0.36858578      -0.85945856       0.39896667      -0.00040729       0.00043517       0.00045630
C      171.74911758      24.20539383      25.30271336       0.15061069      -0.05630816      -0.34962812      -0.00097510       0.00118724      -0.00044271
C      171.64454644      24.45737143      26.72476239      -0.11987438      -1.14363828       0.37002518       0.00034589      -0.00076863      -0.00016292
C      170.38200151      24.66683583      28.73730302      -0.10427748       0.31015853      -0.13308363      -0.00058860       0.00036173       0.00066352
C      171.49197680      25.08478202      29.45602498      -0.71125540      -0.96511345      -0.51456791      -0.00113931      -0.00058168      -0.00006101
C      171.46805454      25.15602149      30.88349151       0.34402680       0.11666104      -0.54528351      -0.00022334       0.00002797      -0.00012874
C      170.31047301      24.72835866      31.58874844       0.44506379       0.27275248      -1.23239822       0.00033497      -0.00015898      -0.00003050
C      170.31105056      24.71531296      33.01667941      -0.31230279       0.64544992       0.12209419      -0.00020836      -0.00037882      -0.00016679
C      171.53186271      25.02574855      33.69214942       0.53241831      -0.13463759      -0.72262789       0.00079257      -0.00000586       0.00071573
C      171.57282222      25.01313717      35.11328446       0.00455048      -0.48084199       0.55821549       0.00066818       0.00053988      -0.00058080
C      170.39129423      24.72162894      35.85525033      -0.61026409      -0.43536264       0.10285560      -0.00060210      -0.00022786       0.00032929
C      170.52116433      24.75082176      37.28192086      -0.63487535      -0.55081187       0.05153577      -0.00123683      -0.00012290      -0.00055951
C      171.71208898      25.18041065      37.93988995      -1.22174629       0.08757626      -0.06496804       0.00181484      -0.00005174      -0.00036753
C      171.77295132      25.34896592      39.35184092      -0.25670209      -0.42041480       0.33743627      -0.00019024       0.00070830      -0.00011891
C      170.60120363      24.96698029      40.12430098      -0.57592981       0.05714970      -1.92462551       0.00076797      -0.00023520      -0.00088365
C      170.52379526      25.16740252      41.54094819      -0.66589711      -0.88146611       0.31053493       0.00136863       0.00047556       0.00033367
C      171.63876613      25.77676822      42.19506035       0.10595457      -0.48378261      -0.98915225       0.00118764      -0.00062516      -0.00065348
C      171.64463183      25.97187414      43.59721307       0.99882463      -0.17163390       1.32661112      -0.00044091      -0.00040062       0.00009239
C      170.47674655      25.71167072      44.33174813       0.83140286       0.54363217      -0.23365105      -0.00030790      -0.00070441       0.00027357
C      170.41105282      26.09472732      45.71779800       1.04102767      -0.21387030       0.16528086      -0.00042733       0.00063366       0.00119519
C      171.54624564      26.60437924      46.32848686      -0.99918621      -0.00137762      -0.25147590       0.00073445       0.00072496      -0.00018525
C      171.50159160      27.12724668      47.66314673      -0.72516670      -0.45748930      -0.60726787       0.00047423      -0.00027826       0.00035828
C      170.28533758      26.91449027      48.39583941       0.32323850      -0.13745777      -0.49382967      -0.00053947      -0.00077733      -0.00081435
C      170.28503133      27.01417082      49.83536699      -0.05233148       0.72685546       0.22715594       0.00075449       0.00042899       0.00156546
C      171.38284451      27.60349508      50.50989339       0.13698862      -0.31095441       0.70787501      -0.00024270      -0.00006854       0.00085399
C      171.38039868      27.70528540      51.94196352       0.54574905       0.15323828      -0.21875647      -0.00028494       0.00005998       0.00039306
C      170.25421815      27.30003430      52.71661381      -1.65200525       0.19945976       0.40579084      -0.00007971      -0.00041465       0.00082308
C      170.26872020      27.55062397      54.15734347       0.73893181      -0.53993666       0.67607169      -0.00004411      -0.00084953      -0.00010397
C      171.52129671      27.80309034      54.80815841      -0.03825626       0.44689347      -0.37984156      -0.00008772      -0.00092267      -0.00070092