15009
Lattice="176.26779792136503 -0.0007313648095257971 0.07829744722637419 -0.00020786524914838996 50.00138400074139 -0.0003545249281795793 0.06777739522175687 -0.0010878278256412123 152.7557898981777" Properties=species:S:1:pos:R:3:momenta:R:3:forces:R:3 energy=-3186594.75 stress="1.427602273906814e-05 1.1593718340918713e-07 -4.227645604260033e-06 1.1593718340918713e-07 -1.746109035138943e-07 -9.019055369208218e-08 -4.227645604260033e-06 -9.019055369208218e-08 -1.4650910316049703e-06" free_energy=-3186594.75 pbc="T T T"
C      172.12033350      29.02968953     152.06316954       0.34279764       0.24648786       0.13049874       0.00058687      -0.00065228       0.00050271
C      173.31616046      28.97964425     152.82274041       0.47687623      -0.40828430      -0.34593284      -0.00005057      -0.00059175      -0.00037459
C      173.28026162      28.57555519       1.42636102      -0.45608863      -0.36817613      -0.32912040      -0.00000544       0.00021633       0.00015995
C      172.10685050      27.84273400       1.96851137       0.14634208      -1.05220902      -0.31983275      -0.00029737       0.00079036       0.00009561
C      172.00580719      27.57595248       3.41580859      -0.32957851      -0.25849439       0.17153740       0.00147629      -0.00044737      -0.00009263
C      173.03483266      28.19686431       4.32613479      -0.20630134       0.89535434      -0.08318255      -0.00093335      -0.00065607       0.00027995
C      173.09276362      27.46541869       5.64249461      -0.82168713       0.87341530       0.50274354       0.00061669      -0.00056493       0.00028981
C      171.88490778      26.93657791       6.16421553       0.77412344       0.62164966      -0.61307655      -0.00012276      -0.00128588       0.00069702
C      171.90330665      26.21804637       7.44806832       0.04602154      -0.61555019       0.41236608       0.00024587      -0.00036037       0.00077039
C      173.08612308      26.46445266       8.30625856       0.48140473      -1.52117663      -0.04503672       0.00009516       0.00042677      -0.00059360
C      172.98312299      26.16020416       9.73115296      -0.13164233       0.25794823      -0.08680626       0.00022161      -0.00018986      -0.00113052
C      171.97994903      26.69402120      10.53716397      -0.43328653       0.24930268       0.45611354      -0.00062019       0.00067265       0.00040153
C      171.99816498      26.48258478      11.95519600       0.61271160      -1.23949007      -0.71796502       0.00087156      -0.00059541      -0.00058994
C      173.16598553      25.81693335      12.54569799      -0.23140984       0.49591924       1.29086883      -0.00036943       0.00117099       0.00063670
C      172.90483749      28.43830212      14.34329512       0.15060164       0.42132913      -0.05503369       0.00032988      -0.00018781      -0.00049835
C      171.84182799      27.67233249      14.90617831      -0.03257232       0.68720901       0.98712016      -0.00011580      -0.00044858      -0.00000489
C      171.79357669      27.67081445      16.33246278      -0.33443687       0.28975171      -0.23679542       0.00036308      -0.00143149       0.00004198
C      172.93632518      27.92375876      17.11244172      -0.64466859      -0.09342655       0.91365577      -0.00084430      -0.00092405      -0.00022910
C      173.05284229      27.46810084      18.58711385       0.60166120       0.40818523      -0.21054769       0.00050598       0.00019217      -0.00034413
C      171.71618361      27.21963849      19.28026484       0.55715209       0.25359264      -0.27750996      -0.00090748      -0.00037026      -0.00002110
C      171.60016976      27.30279084      20.76942453       0.34504463      -0.20859452       0.06236582       0.00056219      -0.00012219      -0.00051558
C      172.74953635      27.69378198      21.58576810      -0.68178641      -0.47497608       0.56151985      -0.00025958      -0.00042250      -0.00008707
C      172.74928902      27.52414715      22.94749339       0.30544822       0.30840484      -0.64697584       0.00115265       0.00064651      -0.00028521
C      171.48413906      27.18256794      23.66598621       0.14374442       0.52408476       0.47513327       0.00004002      -0.00015798      -0.00017053
C      171.47130234      26.89029117      25.11318732       0.02841701       0.17597828       0.78738108      -0.00059084      -0.00067097      -0.00038195
C      172.80652237      26.72012680      25.80625831      -0.58160143       0.87523695      -0.79624509       0.00054530      -0.00041467       0.00125492
C      172.72256124      26.87361630      27.31497679       0.30186505       0.12125010      -0.20777303      -0.00128435      -0.00037250       0.00075159
C      171.41136658      26.77166410      27.96320453      -0.48773714       0.92324708      -0.61600497       0.00143659       0.00008367       0.00074410
C      171.37849587      26.30147934      29.41406077      -0.09124254      -1.01677917       0.03057276      -0.00074857      -0.00012970       0.00073767
C      172.53490046      26.83687918      30.24287946       0.12891979      -0.25139678       0.31384318       0.00089514      -0.00003624       0.00010937
C      172.56183950      26.34796987      31.64322720       0.46789988       0.06122070       0.19779147      -0.00253217       0.00001679       0.00181120
C      171.37716496      26.05602114      32.24532040       0.59969188       0.67744745       0.79364362       0.00197997       0.00100452      -0.00198381
C      171.35685989      25.64569245      33.67601896      -0.92313606       1.03445915      -1.17124029      -0.00060052       0.00143881       0.00101441
C      172.66547477      25.37145328      34.33345873      -0.10952332       0.22732980       0.30729609       0.00024009       0.00022438      -0.00043182
C      172.79227080      24.28369401      35.38944067       0.28513716       0.25639265      -0.43550912      -0.00038458      -0.00007814       0.00000793
C      171.51251379      24.04195939      36.12652340      -0.39416345       0.20420375       0.06312850       0.00170738       0.00089137       0.00011896
C      171.56179548      23.70706501      37.50769056      -0.48122072       0.26392752       1.02142865      -0.00006288       0.00086853      -0.00088935
C      172.77356896      23.76346877      38.26012549       0.32571631       0.07518384      -0.96895282      -0.00088989       0.00010833      -0.00098315
C      172.73332459      23.53388003      39.66620404       1.11373492      -0.00531775       0.57500855      -0.00049637      -0.00093296      -0.00008890
C      171.46899502      23.44529739      40.31348540      -0.49216066       1.19582295      -0.08226999      -0.00054135      -0.00048931       0.00028837
C      171.41789903      23.50441456      41.72444140      -0.60974823      -0.79423996       0.22403403       0.00076514       0.00001916       0.00077245
C      173.80239732      28.98663495      41.55420408       0.08489484      -0.10407425      -0.33046607       0.00066036       0.00028792       0.00007463
C      174.58447419      29.38395654      40.50041508      -0.69300271       0.46354909       1.02958085       0.00071800      -0.00087653       0.00006962
C      170.89025553      28.46791673      44.42379716      -0.53818988      -0.39209873      -0.59774404       0.00051135      -0.00024307       0.00065261
C      170.80169784      27.95838770      45.76540528      -0.44139142      -0.21766817      -0.22610091       0.00126255       0.00041362      -0.00041813
C      171.79546300      28.45843668      46.77471734      -0.55726770      -0.12723544       0.00198071      -0.00063112      -0.00000060      -0.00023209
C      172.19373664      27.77587937      49.22430695       1.01912491       0.53794471       0.12850295      -0.00073051      -0.00062937       0.00035328
C      171.28224170      27.73034603      48.07147536      -0.44628499      -0.10300763       1.33959715      -0.00018078      -0.00050545       0.00018799
C      172.06103603      26.84929998      50.38081639      -0.27221827       0.05977270       0.13017992       0.00009665      -0.00030288       0.00055182
C      172.28649321      27.30266018      51.66500359      -0.08363289      -0.23516692      -0.07378828       0.00067785       0.00035650       0.00019449
C      172.83848124      28.72999445      51.75139972       0.11359709      -1.22323614       0.87351359      -0.00113666       0.00049627       0.00037055
C      171.83009241      26.58984898      52.84553817      -0.47945457      -0.80584099       0.90896715       0.00003272       0.00052917       0.00053683
C      171.48386976      27.07777910      54.09561766      -0.67806968       0.75722949       0.18772850      -0.00058090       0.00048432       0.00016699
C      172.14523534      28.33920414      54.60817729      -1.35733112       0.01431989       0.23773591      -0.00066565       0.00064199       0.00006449
C      172.96341536      26.45541365      56.56539717       0.02514822      -0.30168972      -0.16794438       0.00077175       0.00052637      -0.00108586
C      171.61222148      26.30255215      57.24186155      -0.18325253       0.80330225      -0.26307516       0.00004572      -0.00142127       0.00021529
C      171.64934982      25.68260227      58.60999539       1.07494723       0.64338189      -0.58862263      -0.00134201      -0.00027507       0.00025347
C      172.84124064      25.62203438      59.41431576      -0.41724421      -0.80339985      -0.23018784       0.00029907      -0.00006114       0.00029339
C      172.77423838      24.85749866      60.61780041      -0.25522836      -0.23238038      -0.28353638      -0.00147051      -0.00013815      -0.00026524
C      171.51915254      24.45140013      61.09826812      -0.07888739      -0.28078590      -0.11377131      -0.00049734       0.00013902       0.00009793
C      171.83872544      27.43089544      63.45075313      -0.51159363       0.31102418      -1.07415208       0.00194621      -0.00017947       0.00058240
C      172.78522808      27.12108943      64.49246313      -0.52739285       0.71939107       0.42146846      -0.00083517      -0.00073976      -0.00160089
C      172.48863225      26.62978746      65.80724666       0.01534808      -0.44764173       0.11089393       0.00113823       0.00063163       0.00001264
C      171.40634926      25.81165107      66.17577531      -0.43230759       0.26543979       0.20443638       0.00068963       0.00003710       0.00021963
C      171.51520375      24.93841444      67.34825628       0.49889452      -0.05910326      -0.50629438       0.00086681       0.00054496       0.00005091
C      172.53960004      25.20200181      68.30363815       1.04164478       0.55673658       1.03545925      -0.00031637       0.00003360      -0.00009725
C      172.54913039      24.50789954      69.54098757      -0.34939167      -0.09235017       0.05797857      -0.00099254      -0.00128153      -0.00098771
C      171.60697936      23.54114825      69.84925900      -0.09390200      -0.28607374       0.08989599       0.00016298       0.00084347      -0.00028160
C      171.37855126      23.04552554      71.25958825      -0.62541394       0.50258515       0.15666422       0.00089654       0.00020808      -0.00012234
C      172.66390330      23.00883000      72.07409942      -0.57893903      -0.11925276       0.46549084      -0.00104326      -0.00115456      -0.00018680
C      172.56431656      22.84933256      73.54678021      -0.44165655      -1.02864749      -0.63359094       0.00103386       0.00036183      -0.00114912
C      171.34944244      22.93256977      74.18037809      -0.48281500       0.48037108       1.43070628      -0.00159452      -0.00023227       0.00057370
C      171.30341595      22.50751451      75.70394184       0.13967998      -0.22660679       0.22243601       0.00074066      -0.00089401      -0.00073950
C      172.62784205      23.03004898      76.45627316      -0.55485960       0.97832066      -0.55470888       0.00042564      -0.00004011       0.00062022
C      172.68407753      22.50962348      77.92515165      -1.59721928      -0.86850699      -0.31472145      -0.00016938       0.00072527      -0.00109583
C      171.40951794      22.94059407      78.72488674       0.37280690       0.86662929      -0.12909471      -0.00044194       0.00066832      -0.00024080
C      171.46977293      23.48012611      80.12184776       0.32956264       0.37330249      -0.59183740       0.00014302      -0.00045615      -0.00044364
C      172.77562236      23.78853162      80.70403197      -0.30278840      -0.04973162      -0.06130344      -0.00147721       0.00035693       0.00051358
C      172.86749317      24.42449373      81.93816812       0.43279913       0.60558187      -0.54081437       0.00062364      -0.00111718       0.00071700
C      171.76836858      25.30283765      82.45532474       0.35052134       0.42658025      -0.53462356      -0.00028060       0.00034732       0.00005293
C      171.97855690      26.00455147      83.76870438      -0.49527871      -0.21961313       0.58860417      -0.00050846      -0.00029957      -0.00109899
C      173.02105892      25.37452905      84.69301478       0.35456197       0.52650200      -0.07861249      -0.00135148      -0.00079876       0.00028604
C      173.28517191      26.35791329      85.84983347       0.96323916      -0.03085911       0.08473564       0.00133543       0.00002310      -0.00030804
C      171.98182114      26.53880864      86.65587362       0.37493067      -0.10450246      -0.20254059       0.00067821       0.00044257      -0.00034335
C      171.96250592      26.58479469      88.04280057      -0.48605681      -0.23168634       0.40474539       0.00060549      -0.00016132       0.00011720
C      173.12529188      26.18669611      88.83220889      -0.77880028       0.32306617       0.94669984      -0.00002448      -0.00079972       0.00132442
C      173.16494833      26.44317338      90.30341338      -0.62432292      -0.20710069       0.72302571       0.00045295       0.00116754       0.00049818
C      172.08071001      27.31404018      90.93674874       0.00230335       0.54933687      -0.16383515       0.00097960      -0.00006971       0.00022936
C      171.92434663      27.06153643      92.45332530       1.06664025       0.50730580      -0.31762531       0.00057517       0.00107607      -0.00004786
C      173.09765645      26.60903631      93.26567456      -0.50609213       0.25388326       0.00739235      -0.00036228       0.00031316      -0.00083010
C      172.83384566      26.26538055      94.70851209       0.82491977      -0.29225767      -0.91658016      -0.00149180      -0.00017409       0.00106314
C      171.69753459      26.74728816      95.32626590       0.73574750      -0.36672888       0.11668048       0.00116398       0.00018306      -0.00045583
C      171.66989689      26.73662429      96.73536194       0.53753490       0.07069339      -0.75511871       0.00062738      -0.00053495      -0.00034517
C      172.77465055      26.34904831      97.48414753      -0.51304039       0.12643140       0.41626919       0.00067064       0.00158751       0.00043377
C      172.82362691      26.63020469      98.90525677       0.05973274      -0.26517499       0.33989795      -0.00068867       0.00071099      -0.00035447
C      171.62649705      26.78848084      99.62885020      -0.07524306       0.22759223       0.26451791       0.00105438      -0.00012809      -0.00054169
C      171.55083184      26.88417927     101.10905704      -0.24129472      -0.17232523       0.78000697      -0.00057556       0.00026625      -0.00011703
C      172.35396138      26.05461876     101.91449856       0.03870742      -0.70190404      -0.11679756       0.00123444       0.00035048      -0.00045431
C      172.42477313      26.18779921     103.30668308       0.38026003      -1.03345225      -0.29827624      -0.00031921       0.00036597       0.00056649
C      171.31402913      26.75941232     104.01173102       0.34941952      -0.52903741      -0.24689560      -0.00053546      -0.00097544      -0.00007072
C      171.14771557      26.44454605     105.43482042       0.53880740      -0.72460789      -1.28154952      -0.00008455      -0.00061446      -0.00035904
C      171.68783539      25.07660074     105.68562113       0.02523763      -0.73903213      -0.30767516      -0.00064996       0.00089535      -0.00026065
C      172.43220677      25.57561734     108.82336819       0.68035571       0.19773566       0.28636118       0.00027353       0.00193864       0.00047511
C      171.58008959      26.77566183     108.85208418      -0.09449688       0.38243705      -1.04199770      -0.00103037       0.00106607      -0.00030598
C      171.67425334      27.45659439     110.12567466       0.35801716      -1.22612390      -0.56710885      -0.00073165       0.00091138       0.00044860
C      172.89569706      27.42404990     110.88929339      -0.14852284       0.73314289      -0.26504725       0.00023301      -0.00052395      -0.00029573
C      173.08177045      28.19077255     112.07630274      -0.12144894      -0.58169774      -0.41837601       0.00007799      -0.00078863      -0.00063658
C      171.89471452      28.73071015     112.71404961       0.26845025       0.16462434       0.13760897      -0.00062531       0.00074434       0.00026725
C      171.77136242      29.16919446     114.07583295       0.38375666       0.50652550      -1.60130699      -0.00034040      -0.00104117      -0.00103520
C      172.42064212      28.89131350     115.33061192      -0.43891393      -0.28097428      -0.25691274      -0.00016952       0.00001669      -0.00006848
C      173.24128072      27.69547222     115.66609831      -0.38439396      -0.15023039      -0.23326381      -0.00015129      -0.00017887      -0.00082828
C      171.84831830      29.76689392     116.34063130      -0.73132925       0.45889313       0.08267885      -0.00085662      -0.00042380       0.00035644
C      172.10224415      29.93164145     117.76670309      -0.14737566       0.88532891      -0.66726734       0.00058652      -0.00017428       0.00041446
C      173.27984436      29.84359678     118.50609117       0.25245374      -0.07016603      -0.21683926       0.00022036       0.00060052      -0.00001368
C      173.23339238      29.87753225     119.98753891       0.49161885      -0.18755050      -0.77780534      -0.00029499       0.00055168       0.00049576
C      172.03374392      30.09371225     120.69930618      -0.26141932      -0.13563058       0.20699711       0.00128137      -0.00071684       0.00040779
C      172.00155402      30.27176628     122.10368233      -0.19593945       0.71756911      -0.45741529      -0.00034012      -0.00074323      -0.00045945
C      173.22363583      30.25199260     122.81100332      -0.79498333      -0.46087590      -0.86823397      -0.00043474       0.00072795       0.00072790
C      173.28569106      30.91975166     124.16602645      -0.89791150      -0.27004310       0.04765372       0.00260070      -0.00061408       0.00117591
C      171.98345261      30.94629097     124.91349915       0.01321803       0.08134027      -0.51242768      -0.00266406      -0.00077012      -0.00194237
C      171.99910094      31.26363568     126.32019097       0.35457364       0.52950791      -0.45788199       0.00070051       0.00032514       0.00047536
C      173.19367325      31.38325033     127.05317419      -0.13942601       0.00033857      -0.56335322      -0.00146057       0.00047305       0.00148489
C      173.13231378      31.60694069     128.44229737      -0.07336710       0.28121093       0.85695984       0.00046718      -0.00013232       0.00013196
C      171.89258409      32.05874902     129.00501177       0.67060198       0.67047851       0.98928774       0.00059798       0.00151199       0.00016248
C      172.03813369      29.78934839     130.63892858      -0.75281693       0.19826494       0.80482024       0.00122888       0.00015761       0.00058016
C      173.20107697      30.40290300     131.33845061      -0.58167312      -0.16930194      -0.66349704       0.00029985      -0.00032104       0.00131285
C      173.26987810      30.27752748     132.75523558       0.05210220       0.14954372      -0.99608283      -0.00078700       0.00043201      -0.00090283
C      172.11869301      29.91973475     133.50185332       0.77213645       0.06659300       0.41386939      -0.00170256      -0.00053428       0.00034183
C      172.17679787      29.83376228     134.91781008      -0.14086626      -0.74307478       0.28307506      -0.00111515      -0.00030333      -0.00181375
C      173.43210511      29.98633831     135.60008508       0.45439305       0.49978710       0.25473328       0.00119295       0.00040840       0.00137044
C      173.48550754      29.55163948     136.98317336       0.06896098      -0.23380707       0.03550737       0.00107464      -0.00000781      -0.00043964
C      172.25336023      29.50572076     137.66253994      -0.61319646       0.29105238       0.57785484       0.00073060      -0.00106028       0.00016861
C      173.26645034      28.90910129     139.70739628       0.83564540      -0.06338873      -0.66039591       0.00032193       0.00003715       0.00042494
C      173.00374746      28.51374375     141.09616861       0.00728766      -0.54127700       0.97092894       0.00074223      -0.00000200      -0.00037731
C      173.09456680      28.66111920     144.24116120       0.57518584       0.05570095      -0.37178863       0.00081534      -0.00121804      -0.00103545
C      173.12892794      28.48647688     145.62479476       0.06931875      -1.16721986       0.41138551       0.00171019      -0.00029375       0.00026070
C      171.98905733      28.90213053     146.38079801       0.03811726       0.15368745      -0.26269547      -0.00046816       0.00012998      -0.00020671
C      171.95524986      28.74436603     147.75424364      -0.20693930       0.14467641       0.62445748       0.00199930      -0.00068328       0.00089973
C      173.10214082      28.14116777     148.52006781      -0.27379745       1.40153175       0.51494334      -0.00069077      -0.00161397       0.00003573
C      173.19263929      29.00381992     149.76045629      -0.65956136       0.12538999       0.72170244      -0.00042215      -0.00044656      -0.00117785
C      172.08286647      29.03504512     150.63722200      -0.36416260      -0.21364917      -0.64161044      -0.00088024      -0.00041439       0.00046252
C      169.54442864      29.27125226     152.09087404       0.03660040      -0.76620750      -0.16401387       0.00095627      -0.00005072      -0.00017072
C      170.84676430      28.94057951     152.81716493      -0.21069120      -0.08361407      -0.85142804      -0.00076240      -0.00017193       0.00063872
C      170.78758387      28.16597994       1.33646028       0.18212602      -0.00461133      -0.64865264       0.00001149      -0.00020933      -0.00084338
C      169.60760197      27.34387624       1.83539244      -0.39267724       0.54125272       0.40503906      -0.00026156      -0.00021160      -0.00007853
C      169.50801538      27.40787947       3.34065870       1.27626684      -0.52135248       1.12800837       0.00039881       0.00046162       0.00012799
C      170.68437400      27.41077579       4.06051510       0.29917037      -0.56363110      -0.81488076      -0.00135559      -0.00041790      -0.00104232
C      170.67470027      27.08069388       5.42266641      -0.38736691       0.07080070      -0.11142211       0.00068656       0.00041571      -0.00050732
C      169.21745224      29.42588488       7.40914755       0.09728259       0.19771687       0.32113612       0.00115812      -0.00539240       0.00418150
C      169.37975007      28.39570013       8.25835337      -0.59698582       1.07735792       0.32300839       0.00019119       0.00035614      -0.00035524
C      170.63821552      28.29296035       8.98831931      -0.84479914      -0.01800208      -0.54207310      -0.00031090      -0.00009066       0.00000860
C      170.78266373      27.33563295       9.95817260      -0.29504258       0.71730051       0.50335274      -0.00016123      -0.00019934      -0.00036003
C      169.56152228      26.74483334      10.48162519       0.08715910      -0.88807213       0.71830944       0.00018998      -0.00000870      -0.00108725
C      169.58720659      26.44235487      12.00472085       0.14574416      -1.28734791       0.25673718      -0.00070284      -0.00018814       0.00026655
C      170.83445278      26.74418796      12.74968030       0.25878983       0.36956737      -0.87100063      -0.00082684      -0.00093409      -0.00031037
C      170.74365311      27.10067548      14.12674938       0.47395033      -0.51696321       0.67045309      -0.00008267       0.00000048      -0.00005351
C      169.50171280      26.72984590      14.81789730      -0.04141614      -0.43479227       0.85118017       0.00045519      -0.00036387       0.00010619
C      169.39748378      26.78641517      16.21899782      -0.30056093       0.15267983      -0.68379883      -0.00008893      -0.00100222      -0.00066844
C      170.39363402      27.68458605      16.84339761       0.07196344       0.15003325       0.39210204       0.00139417       0.00070518      -0.00011340
C      170.81706006      26.15116966      18.70707903      -0.07367307       0.24952037      -0.76378779      -0.00058419       0.00012720      -0.00013755
C      169.41167251      26.14355356      19.20633121      -0.20746122       0.51658354       0.09666394       0.00033320       0.00001658       0.00009269
C      169.34831366      26.12774788      20.57653708       0.04907034      -0.08196109       0.90296327      -0.00077961      -0.00035536       0.00011006
C      170.52672880      26.46737251      21.39539258       0.68179462       0.41365940      -0.71515692       0.00016600       0.00023139      -0.00034666
C      170.41118325      26.49203736      22.86952674      -0.61929792      -0.09825201      -0.40127797       0.00084481      -0.00077522      -0.00022942
C      169.06834724      26.25722884      23.49526770       0.07571217       0.59636581      -0.41755592       0.00015721      -0.00045735      -0.00010425
C      169.01974143      26.15040712      24.99204376       0.28588270       0.27813448       0.10351719      -0.00066039      -0.00010994       0.00022382
C      170.35270321      26.04914325      25.72302543       0.22170882       0.15305170       0.41331785      -0.00080018      -0.00024080       0.00035775
C      170.19053547      26.42228199      27.19055819       0.23815759       0.67633323      -0.24329586      -0.00115514      -0.00113589      -0.00017989
C      169.05174330      25.78986135      27.89996049       0.47866423       0.50257116      -0.33035834      -0.00056429      -0.00049168      -0.00044728
C      168.90679635      25.90562839      29.27051188      -0.72874867       0.23166622       0.23408479      -0.00013977      -0.00120702      -0.00028756
C      170.00592458      26.65022031      30.07098249      -0.50784442      -0.64944799       0.14653525       0.00025073       0.00052607      -0.00018622
C      170.06322208      26.28680562      31.57741784      -0.28374848       0.15916486       0.46595858       0.00066608       0.00042224      -0.00000924
C      168.79764861      25.84144735      32.22878420       0.30902968       1.64829435      -0.27263799      -0.00241834      -0.00191021       0.00022486
C      168.80492110      25.04193297      33.54620534      -0.59691325       0.31970681      -0.20466040       0.00083616       0.00094521       0.00070411
C      170.12960775      25.01558117      34.27222101       0.51442066       0.46898473      -0.08964126       0.00024635       0.00019163       0.00035132
C      170.30333751      24.13876369      35.45045891      -0.13124895       0.63409536      -0.49309735      -0.00134812       0.00052927       0.00008562
C      169.09840289      23.69070294      36.05366698       1.34201141      -0.00721334      -0.46476482      -0.00018832      -0.00022440       0.00001010
C      169.13588684      23.40899088      37.43262786       0.23824001       0.84183626       1.23129032       0.00142011       0.00001329      -0.00073976
C      170.32807759      23.47905733      38.17552712      -0.81566444       0.70127596       0.20491200       0.00032755      -0.00076320      -0.00005654
C      170.26968603      23.45268450      39.59364124       0.78481301      -0.29281659      -0.09808323      -0.00006877       0.00017633       0.00007032
C      169.01245860      23.62117726      40.25787937      -0.28883581       0.21531578      -0.34835234       0.00064865       0.00066280       0.00013969
C      168.98688524      24.04542264      41.65822683      -0.63819288       0.21987198      -0.05711715       0.00115645       0.00027478       0.00014696
C      170.21522335      23.80997551      42.36221940      -0.49108098       0.64835696      -0.10658890       0.00004138      -0.00011989       0.00069502
C      170.29458230      25.41726269      43.94799380       0.09062038      -0.86208429       0.12325517      -0.00255889      -0.00009191      -0.00083578
C      168.93765453      25.83366038      44.32891523      -0.35042112      -0.11503029      -0.13129266       0.00052893       0.00014481       0.00009823
C      168.81025172      26.43255017      45.54412348      -0.26613419       0.62322764       0.05716238      -0.00126790      -0.00021483       0.00002829
C      169.89975986      27.06466767      46.28238799      -0.19469653       0.07506057      -0.60370710       0.00075477      -0.00006607       0.00044650
C      170.06334705      26.86477477      47.71153632       0.20122736      -0.27719442      -0.33313681      -0.00139969       0.00024831       0.00042111